
                                 *****************
                                 * O   R   C   A *
                                 *****************

           --- An Ab Initio, DFT and Semiempirical electronic structure package ---

                  #######################################################
                  #                        -***-                        #
                  #          Department of theory and spectroscopy      #
                  #               Directorship: Frank Neese             #
                  #        Max Planck Institute fuer Kohlenforschung    #
                  #                Kaiser Wilhelm Platz 1               #
                  #                 D-45470 Muelheim/Ruhr               #
                  #                      Germany                        #
                  #                                                     #
                  #                  All rights reserved                #
                  #                        -***-                        #
                  #######################################################


                         Program Version 4.2.1 -  RELEASE  -


 With contributions from (in alphabetic order):
   Daniel Aravena         : Magnetic Suceptibility
   Michael Atanasov       : Ab Initio Ligand Field Theory (pilot matlab implementation)
   Alexander A. Auer      : GIAO ZORA, VPT2
   Ute Becker             : Parallelization
   Giovanni Bistoni       : ED, misc. LED, open-shell LED, HFLD
   Martin Brehm           : Molecular dynamics
   Dmytro Bykov           : SCF Hessian
   Vijay G. Chilkuri      : MRCI spin determinant printing, contributions to CSF-ICE
   Dipayan Datta          : RHF DLPNO-CCSD density
   Achintya Kumar Dutta   : EOM-CC, STEOM-CC
   Dmitry Ganyushin       : Spin-Orbit,Spin-Spin,Magnetic field MRCI
   Miquel Garcia          : C-PCM Hessian, Gaussian charge scheme
   Yang Guo               : DLPNO-NEVPT2, CIM, IAO-localization
   Andreas Hansen         : Spin unrestricted coupled pair/coupled cluster methods
   Benjamin Helmich-Paris : CASSCF linear response (MC-RPA)
   Lee Huntington         : MR-EOM, pCC
   Robert Izsak           : Overlap fitted RIJCOSX, COSX-SCS-MP3, EOM
   Christian Kollmar      : KDIIS, OOCD, Brueckner-CCSD(T), CCSD density
   Simone Kossmann        : Meta GGA functionals, TD-DFT gradient, OOMP2, MP2 Hessian
   Martin Krupicka        : AUTO-CI
   Lucas Lang             : DCDCAS
   Dagmar Lenk            : GEPOL surface, SMD
   Dimitrios Liakos       : Extrapolation schemes; Compound Job, initial MDCI parallelization
   Dimitrios Manganas     : Further ROCIS development; embedding schemes
   Dimitrios Pantazis     : SARC Basis sets
   Taras Petrenko         : DFT Hessian,TD-DFT gradient, ASA, ECA, R-Raman, ABS, FL, XAS/XES, NRVS
   Peter Pinski           : DLPNO-MP2, DLPNO-MP2 Gradient
   Christoph Reimann      : Effective Core Potentials
   Marius Retegan         : Local ZFS, SOC
   Christoph Riplinger    : Optimizer, TS searches, QM/MM, DLPNO-CCSD(T), (RO)-DLPNO pert. Triples
   Tobias Risthaus        : Range-separated hybrids, TD-DFT gradient, RPA, STAB
   Michael Roemelt        : Original ROCIS implementation
   Masaaki Saitow         : Open-shell DLPNO-CCSD energy and density
   Barbara Sandhoefer     : DKH picture change effects
   Avijit Sen             : IP-ROCIS
   Kantharuban Sivalingam : CASSCF convergence, NEVPT2, FIC-MRCI
   Bernardo de Souza      : ESD, SOC TD-DFT
   Georgi Stoychev        : AutoAux, RI-MP2 NMR
   Willem Van den Heuvel  : Paramagnetic NMR
   Boris Wezisla          : Elementary symmetry handling
   Frank Wennmohs         : Technical directorship


 We gratefully acknowledge several colleagues who have allowed us to
 interface, adapt or use parts of their codes:
   Stefan Grimme, W. Hujo, H. Kruse,             : VdW corrections, initial TS optimization,
                  C. Bannwarth                     DFT functionals, gCP, sTDA/sTD-DF
   Ed Valeev, F. Pavosevic, A. Kumar             : LibInt (2-el integral package), F12 methods
   Garnet Chan, S. Sharma, J. Yang, R. Olivares  : DMRG
   Ulf Ekstrom                                   : XCFun DFT Library
   Mihaly Kallay                                 : mrcc  (arbitrary order and MRCC methods)
   Andreas Klamt, Michael Diedenhofen            : otool_cosmo (COSMO solvation model)
   Jiri Pittner, Ondrej Demel                    : Mk-CCSD
   Frank Weinhold                                : gennbo (NPA and NBO analysis)
   Christopher J. Cramer and Donald G. Truhlar   : smd solvation model
   Lars Goerigk                                  : TD-DFT with DH, B97 family of functionals
   V. Asgeirsson, H. Jonsson                     : NEB implementation
   FAccTs GmbH                                   : IRC, NEB, NEB-TS, Multilevel, MM, QM/MM, CI optimization
   S Lehtola, MJT Oliveira, MAL Marques          : LibXC Library


 Your calculation uses the libint2 library for the computation of 2-el integrals
 For citations please refer to: http://libint.valeyev.net

 Your ORCA version has been built with support for libXC version: 4.2.3
 For citations please refer to: https://tddft.org/programs/libxc/

 This ORCA versions uses:
   CBLAS   interface :  Fast vector & matrix operations
   LAPACKE interface :  Fast linear algebra routines


Your calculation utilizes the atom-pairwise dispersion correction
with the Becke-Johnson damping scheme (D3BJ)
Cite in your paper:
S.Grimme, S.Ehrlich, L.Goerigk, J Comput Chem, (2011), 32, 1456???1465 
S.Grimme, J.Antony, S.Ehrlich and H.Krieg, J.Chem.Phys., 132, (2010), 154104 
   

----- Orbital basis set information -----
Your calculation utilizes the basis: def2-SVP
   F. Weigend and R. Ahlrichs, Phys. Chem. Chem. Phys. 7, 3297 (2005).

================================================================================
                                        WARNINGS
                       Please study these warnings very carefully!
================================================================================


WARNING: your system is open-shell and RHF/RKS was chosen
  ===> : WILL SWITCH to UHF/UKS


WARNING: Geometry Optimization
  ===> : Switching off AutoStart
         For restart on a previous wavefunction, please use MOREAD

INFO   : the flag for use of LIBINT has been found!

================================================================================
                                       INPUT FILE
================================================================================
NAME = culcl2.inp
|  1> ! PBE0 Grid4 D3BJ def2-svp PAL3
|  2> ! TightOpt
|  3> ! CPCM(water)
|  4> 
|  5> * xyz 0 2
|  6> 6       -1.216833426     -1.004596120      2.125595692
|  7> 6       -0.685415133     -1.815038572      0.938242812
|  8> 7        0.140651033     -1.018104661      0.018414532
|  9> 6        1.231062279     -0.317811110      0.724928897
| 10> 6        0.768848476      0.524178834      1.920788043
| 11> 6       -2.103313010      0.164995714      1.679244838
| 12> 7       -1.408017563      1.176525353      0.862537371
| 13> 6       -0.173081750      1.658125174      1.499167747
| 14> 6       -0.016503817     -0.400385491      2.838612179
| 15> 6        1.984670548      1.113682598      2.614175692
| 16> 6       -2.020042528     -1.916515428      3.037530324
| 17> 8        0.274074695     -0.624047754      3.986094714
| 18> 6       -2.384437978      2.292677083      0.820250357
| 19> 6        0.978442915     -1.978805297     -0.741872129
| 20> 6       -3.554864253      1.973932662     -0.060562601
| 21> 6       -4.746341530      1.449983339      0.437313668
| 22> 6       -5.737909840      1.012470183     -0.442422101
| 23> 6       -5.547425189      1.083826529     -1.824773955
| 24> 6       -4.370414085      1.619723427     -2.334237351
| 25> 6       -3.362558727      2.064436131     -1.459666745
| 26> 6        2.255910239     -1.242795561     -1.011112875
| 27> 6        2.236138842     -0.242435912     -2.007705846
| 28> 6        3.356896752      0.585825136     -2.193452451
| 29> 6        4.481363242      0.420316869     -1.394117958
| 30> 6        4.502395236     -0.581043039     -0.418511037
| 31> 6        3.394995709     -1.406269534     -0.222629587
| 32> 29      -0.991596788      0.345782147     -0.953550868
| 33> 1       -0.073886204     -2.653718191      1.315125734
| 34> 1       -1.521791869     -2.252899598      0.372170401
| 35> 1        1.769903977      0.320969064      0.009077165
| 36> 1        1.945185899     -1.079533479      1.083149324
| 37> 1       -2.503247486      0.668162418      2.577211295
| 38> 1       -2.967105328     -0.218018204      1.114857745
| 39> 1       -0.447926391      2.250208331      2.389711005
| 40> 1        0.339016427      2.335953348      0.799042429
| 41> 1        2.660155426      0.315556110      2.951568823
| 42> 1        2.535414168      1.774123584      1.929258385
| 43> 1        1.678734066      1.694425087      3.495062265
| 44> 1       -2.892307369     -2.322127715      2.505098035
| 45> 1       -1.399695972     -2.753659956      3.386027525
| 46> 1       -2.371654302     -1.364676173      3.919873968
| 47> 1       -1.833813732      3.217052717      0.597825211
| 48> 1       -2.867734449      2.403610886      1.802798991
| 49> 1        1.129973829     -2.894336040     -0.149905218
| 50> 1        0.437944530     -2.245908237     -1.660729550
| 51> 1       -4.899717089      1.377988408      1.516367493
| 52> 1       -6.668493714      0.602980144     -0.043184763
| 53> 1       -6.328856188      0.738554313     -2.504237889
| 54> 1       -4.248682055      1.725565018     -3.413385066
| 55> 1       -2.527695112      2.666180087     -1.853859460
| 56> 1        1.424559647     -0.234918084     -2.752647450
| 57> 1        3.363737369      1.333716346     -2.987342495
| 58> 1        5.353483265      1.060314036     -1.540734807
| 59> 1        5.391446095     -0.716739957      0.201309222
| 60> 1        3.412488894     -2.178826105      0.549202320
| 61> 17      -1.893831237      0.218861333     -3.347228038
| 62> 17      -0.140595257      1.828739921     -2.658144769
| 63> **                         ****END OF INPUT****
================================================================================

                       *****************************
                       * Geometry Optimization Run *
                       *****************************

Geometry optimization settings:
Update method            Update   .... BFGS
Choice of coordinates    CoordSys .... Z-matrix Internals
Initial Hessian          InHess   .... Almoef's Model

Convergence Tolerances:
Energy Change            TolE     ....  1.0000e-06 Eh
Max. Gradient            TolMAXG  ....  1.0000e-04 Eh/bohr
RMS Gradient             TolRMSG  ....  3.0000e-05 Eh/bohr
Max. Displacement        TolMAXD  ....  1.0000e-03 bohr
RMS Displacement         TolRMSD  ....  6.0000e-04 bohr
Strict Convergence                ....  False
------------------------------------------------------------------------------
                        ORCA OPTIMIZATION COORDINATE SETUP
------------------------------------------------------------------------------

The optimization will be done in new redundant internal coordinates
Making redundant internal coordinates   ...  (new redundants) done
Evaluating the initial hessian          ...  (Almloef) done
Evaluating the coordinates              ...  done
Calculating the B-matrix                .... done
Calculating the G-matrix                .... done
Diagonalizing the G-matrix              .... done
Small eigenvalue found = 3.656e-03
Small eigenvalue found = 3.874e-03
Small eigenvalue found = 5.147e-03
Small eigenvalue found = 1.039e-02
Small eigenvalue found = 2.031e-02
Small eigenvalue found = 2.762e-02
The first mode is                       ....  218
The number of degrees of freedom        ....  165

    -----------------------------------------------------------------
                    Redundant Internal Coordinates


    -----------------------------------------------------------------
         Definition                    Initial Value    Approx d2E/dq
    -----------------------------------------------------------------
      1. B(C   1,C   0)                  1.5327         0.369950   
      2. B(N   2,C   1)                  1.4709         0.415710   
      3. B(C   3,N   2)                  1.4760         0.408010   
      4. B(C   4,C   3)                  1.5338         0.368341   
      5. B(C   5,C   0)                  1.5340         0.368185   
      6. B(N   6,C   5)                  1.4743         0.410523   
      7. B(C   7,N   6)                  1.4705         0.416370   
      8. B(C   7,C   4)                  1.5332         0.369152   
      9. B(C   8,C   4)                  1.5212         0.385873   
     10. B(C   8,C   0)                  1.5213         0.385754   
     11. B(C   9,C   4)                  1.5187         0.389374   
     12. B(C  10,C   0)                  1.5193         0.388507   
     13. B(O  11,C   8)                  1.2046         1.105586   
     14. B(C  12,N   6)                  1.4836         0.396817   
     15. B(C  13,N   2)                  1.4842         0.395887   
     16. B(C  14,C  12)                  1.4991         0.418468   
     17. B(C  15,C  14)                  1.3936         0.616668   
     18. B(C  16,C  15)                  1.3959         0.611381   
     19. B(C  17,C  16)                  1.3972         0.608403   
     20. B(C  18,C  17)                  1.3900         0.624802   
     21. B(C  19,C  18)                  1.4066         0.587916   
     22. B(C  19,C  14)                  1.4152         0.569646   
     23. B(C  20,C  13)                  1.4987         0.419086   
     24. B(C  21,C  20)                  1.4122         0.575865   
     25. B(C  22,C  21)                  1.4059         0.589300   
     26. B(C  23,C  22)                  1.3895         0.625909   
     27. B(C  24,C  23)                  1.3982         0.606248   
     28. B(C  25,C  24)                  1.3949         0.613686   
     29. B(C  25,C  20)                  1.3950         0.613489   
     30. B(Cu 26,N   6)                  2.0400         0.519901   
     31. B(Cu 26,N   2)                  2.0216         0.556306   
     32. B(H  27,C   1)                  1.1043         0.341720   
     33. B(H  28,C   1)                  1.1008         0.346136   
     34. B(H  29,C   3)                  1.1004         0.346628   
     35. B(H  30,C   3)                  1.1039         0.342219   
     36. B(H  31,C   5)                  1.1043         0.341677   
     37. B(H  32,C   5)                  1.1006         0.346319   
     38. B(H  33,C   7)                  1.1042         0.341847   
     39. B(H  34,C   7)                  1.1009         0.346029   
     40. B(H  35,C   9)                  1.0987         0.348786   
     41. B(H  36,C   9)                  1.0994         0.347917   
     42. B(H  37,C   9)                  1.0986         0.348961   
     43. B(H  38,C  10)                  1.0995         0.347778   
     44. B(H  39,C  10)                  1.0987         0.348802   
     45. B(H  40,C  10)                  1.0985         0.349038   
     46. B(H  41,C  12)                  1.0987         0.348780   
     47. B(H  42,C  12)                  1.1006         0.346368   
     48. B(H  43,C  13)                  1.1007         0.346195   
     49. B(H  44,C  13)                  1.0990         0.348400   
     50. B(H  45,C  15)                  1.0923         0.357103   
     51. B(H  46,C  16)                  1.0923         0.357106   
     52. B(H  47,C  17)                  1.0916         0.358033   
     53. B(H  48,C  18)                  1.0911         0.358598   
     54. B(H  49,C  19)                  1.1020         0.344526   
     55. B(H  50,C  21)                  1.1017         0.345001   
     56. B(H  51,C  22)                  1.0907         0.359161   
     57. B(H  52,C  23)                  1.0916         0.357932   
     58. B(H  53,C  24)                  1.0922         0.357141   
     59. B(H  54,C  25)                  1.0922         0.357217   
     60. B(Cl 55,Cu 26)                  2.5612         0.191981   
     61. B(Cl 56,Cl 55)                  2.4780         0.057800   
     62. B(Cl 56,Cu 26)                  2.4143         0.329306   
     63. A(C   5,C   0,C   8)          106.8300         0.364443   
     64. A(C   8,C   0,C  10)          111.9746         0.367813   
     65. A(C   1,C   0,C   8)          107.4300         0.364742   
     66. A(C   5,C   0,C  10)          109.0734         0.364887   
     67. A(C   1,C   0,C   5)          112.2182         0.361848   
     68. A(C   1,C   0,C  10)          109.3243         0.365186   
     69. A(N   2,C   1,H  28)          108.7017         0.325966   
     70. A(N   2,C   1,H  27)          108.2951         0.325278   
     71. A(H  27,C   1,H  28)          107.1084         0.286683   
     72. A(C   0,C   1,N   2)          113.1220         0.367141   
     73. A(C   0,C   1,H  27)          109.2214         0.321032   
     74. A(C   0,C   1,H  28)          110.1990         0.321708   
     75. A(C  13,N   2,Cu 26)          120.4344         0.435400   
     76. A(C   1,N   2,C  13)          106.6573         0.369116   
     77. A(C   1,N   2,C   3)          111.8769         0.371035   
     78. A(C   3,N   2,C  13)           97.7756         0.367933   
     79. A(C   3,N   2,Cu 26)          108.8933         0.437773   
     80. A(C   1,N   2,Cu 26)          110.5881         0.439252   
     81. A(N   2,C   3,H  30)          107.8102         0.324358   
     82. A(C   4,C   3,H  30)          108.7076         0.320880   
     83. A(H  29,C   3,H  30)          107.1516         0.286812   
     84. A(N   2,C   3,C   4)          114.2690         0.365694   
     85. A(C   4,C   3,H  29)          109.6394         0.321553   
     86. A(N   2,C   3,H  29)          109.0134         0.325041   
     87. A(C   7,C   4,C   9)          109.2863         0.365190   
     88. A(C   3,C   4,C   9)          109.1347         0.365053   
     89. A(C   8,C   4,C   9)          111.9475         0.367973   
     90. A(C   7,C   4,C   8)          107.3528         0.364626   
     91. A(C   3,C   4,C   8)          106.9984         0.364489   
     92. A(C   3,C   4,C   7)          112.1305         0.361741   
     93. A(N   6,C   5,H  31)          107.9768         0.324601   
     94. A(C   0,C   5,H  31)          108.6688         0.320775   
     95. A(H  31,C   5,H  32)          106.9363         0.286701   
     96. A(C   0,C   5,N   6)          114.3164         0.366052   
     97. A(C   0,C   5,H  32)          109.7202         0.321484   
     98. A(N   6,C   5,H  32)          108.9548         0.325322   
     99. A(C   5,N   6,C   7)          112.3917         0.371528   
    100. A(C  12,N   6,Cu 26)          114.5408         0.430316   
    101. A(C   5,N   6,C  12)          102.8019         0.368469   
    102. A(C   7,N   6,C  12)          108.5826         0.369365   
    103. A(C   7,N   6,Cu 26)          110.3258         0.434052   
    104. A(C   5,N   6,Cu 26)          108.0602         0.432949   
    105. A(C   4,C   7,N   6)          113.1268         0.367105   
    106. A(H  33,C   7,H  34)          107.3714         0.286685   
    107. A(N   6,C   7,H  34)          108.4808         0.326034   
    108. A(C   4,C   7,H  34)          110.1504         0.321578   
    109. A(N   6,C   7,H  33)          108.4066         0.325383   
    110. A(C   4,C   7,H  33)          109.1302         0.320938   
    111. A(C   0,C   8,C   4)          111.4670         0.367384   
    112. A(C   4,C   8,O  11)          124.2665         0.439394   
    113. A(C   0,C   8,O  11)          124.2664         0.439369   
    114. A(H  35,C   9,H  37)          107.9991         0.287966   
    115. A(H  36,C   9,H  37)          108.7537         0.287854   
    116. A(C   4,C   9,H  37)          110.3862         0.324852   
    117. A(H  35,C   9,H  36)          108.6462         0.287831   
    118. A(C   4,C   9,H  36)          110.4746         0.324692   
    119. A(C   4,C   9,H  35)          110.5131         0.324825   
    120. A(H  39,C  10,H  40)          107.9824         0.287978   
    121. A(H  38,C  10,H  40)          108.6848         0.287846   
    122. A(C   0,C  10,H  40)          110.4757         0.324745   
    123. A(H  38,C  10,H  39)          108.6905         0.287815   
    124. A(C   0,C  10,H  39)          110.4400         0.324709   
    125. A(C   0,C  10,H  38)          110.4979         0.324552   
    126. A(H  41,C  12,H  42)          108.4214         0.287630   
    127. A(N   6,C  12,C  14)          111.7549         0.372013   
    128. A(C  14,C  12,H  42)          101.7199         0.328326   
    129. A(N   6,C  12,H  42)          109.8404         0.323520   
    130. A(C  14,C  12,H  41)          116.8221         0.328702   
    131. A(N   6,C  12,H  41)          107.9931         0.323888   
    132. A(H  43,C  13,H  44)          108.3730         0.287558   
    133. A(C  20,C  13,H  44)          112.8529         0.328723   
    134. A(N   2,C  13,H  44)          107.9383         0.323706   
    135. A(C  20,C  13,H  43)          112.8142         0.328379   
    136. A(N   2,C  13,H  43)          109.9134         0.323369   
    137. A(N   2,C  13,C  20)          104.7908         0.371957   
    138. A(C  12,C  14,C  19)          117.4645         0.398695   
    139. A(C  12,C  14,C  15)          122.5173         0.404304   
    140. A(C  15,C  14,C  19)          119.5673         0.427101   
    141. A(C  14,C  15,C  16)          120.0008         0.432555   
    142. A(C  16,C  15,H  45)          120.1452         0.351577   
    143. A(C  14,C  15,H  45)          119.8533         0.352089   
    144. A(C  15,C  16,C  17)          120.7080         0.431508   
    145. A(C  17,C  16,H  46)          119.7959         0.351287   
    146. A(C  15,C  16,H  46)          119.4943         0.351577   
    147. A(C  16,C  17,C  18)          119.8510         0.433195   
    148. A(C  18,C  17,H  47)          119.9993         0.353026   
    149. A(C  16,C  17,H  47)          120.1381         0.351441   
    150. A(C  19,C  18,H  48)          120.2874         0.349508   
    151. A(C  17,C  18,H  48)          119.6276         0.353120   
    152. A(C  17,C  18,C  19)          120.0493         0.430537   
    153. A(C  18,C  19,H  49)          119.5416         0.347158   
    154. A(C  14,C  19,H  49)          119.4395         0.345320   
    155. A(C  14,C  19,C  18)          119.8107         0.423467   
    156. A(C  21,C  20,C  25)          119.5597         0.427537   
    157. A(C  13,C  20,C  25)          122.4749         0.404041   
    158. A(C  13,C  20,C  21)          117.5629         0.399560   
    159. A(C  22,C  21,H  50)          119.5977         0.347376   
    160. A(C  20,C  21,H  50)          119.4947         0.346030   
    161. A(C  20,C  21,C  22)          119.9598         0.424468   
    162. A(C  23,C  22,H  51)          119.6903         0.353320   
    163. A(C  21,C  22,H  51)          120.3393         0.349739   
    164. A(C  21,C  22,C  23)          119.9296         0.430856   
    165. A(C  24,C  23,H  52)          120.1039         0.351214   
    166. A(C  22,C  23,H  52)          119.9617         0.353115   
    167. A(C  22,C  23,C  24)          119.9253         0.433057   
    168. A(C  25,C  24,H  53)          119.5392         0.351807   
    169. A(C  23,C  24,H  53)          119.8134         0.351083   
    170. A(C  23,C  24,C  25)          120.6465         0.431524   
    171. A(C  24,C  25,H  54)          120.3311         0.351820   
    172. A(C  20,C  25,H  54)          119.6969         0.351801   
    173. A(C  20,C  25,C  24)          119.9714         0.432446   
    174. A(Cl 55,Cu 26,Cl 56)           59.6526         0.420747   
    175. A(N   6,Cu 26,Cl 56)          116.7661         0.485809   
    176. A(N   2,Cu 26,Cl 56)          123.8094         0.491935   
    177. A(N   6,Cu 26,Cl 55)          141.2850         0.440190   
    178. A(N   2,Cu 26,Cl 55)          127.8214         0.445611   
    179. A(N   2,Cu 26,N   6)           87.7676         0.515549   
    180. A(Cu 26,Cl 55,Cl 56)           57.2261         0.295749   
    181. A(Cu 26,Cl 56,Cl 55)           63.1213         0.322606   
    182. D(N   2,C   1,C   0,C  10)   -178.3303         0.010941   
    183. D(N   2,C   1,C   0,C   5)     60.5185         0.010941   
    184. D(H  27,C   1,C   0,C   5)   -178.7941         0.010941   
    185. D(H  28,C   1,C   0,C  10)     59.7596         0.010941   
    186. D(H  27,C   1,C   0,C   8)     64.0736         0.010941   
    187. D(H  28,C   1,C   0,C   8)   -178.5240         0.010941   
    188. D(H  28,C   1,C   0,C   5)    -61.3916         0.010941   
    189. D(H  27,C   1,C   0,C  10)    -57.6429         0.010941   
    190. D(N   2,C   1,C   0,C   8)    -56.6138         0.010941   
    191. D(C  13,N   2,C   1,C   0)    158.9479         0.015785   
    192. D(Cu 26,N   2,C   1,H  28)     54.3192         0.015785   
    193. D(C  13,N   2,C   1,H  27)     37.7359         0.015785   
    194. D(C   3,N   2,C   1,H  27)    -68.0664         0.015785   
    195. D(C   3,N   2,C   1,C   0)     53.1456         0.015785   
    196. D(C   3,N   2,C   1,H  28)    175.8913         0.015785   
    197. D(C  13,N   2,C   1,H  28)    -78.3064         0.015785   
    198. D(Cu 26,N   2,C   1,H  27)    170.3615         0.015785   
    199. D(Cu 26,N   2,C   1,C   0)    -68.4265         0.015785   
    200. D(C   4,C   3,N   2,C   1)    -52.7109         0.015208   
    201. D(H  29,C   3,N   2,Cu 26)    -53.2142         0.015208   
    202. D(H  29,C   3,N   2,C   1)   -175.7574         0.015208   
    203. D(H  30,C   3,N   2,C  13)    -43.2596         0.015208   
    204. D(H  30,C   3,N   2,Cu 26)   -169.2111         0.015208   
    205. D(H  30,C   3,N   2,C   1)     68.2457         0.015208   
    206. D(C   4,C   3,N   2,Cu 26)     69.8324         0.015208   
    207. D(C   4,C   3,N   2,C  13)   -164.2161         0.015208   
    208. D(H  29,C   3,N   2,C  13)     72.7373         0.015208   
    209. D(C   7,C   4,C   3,H  30)    177.0031         0.010852   
    210. D(C   7,C   4,C   3,H  29)     60.1680         0.010852   
    211. D(C   8,C   4,C   3,N   2)     54.9132         0.010852   
    212. D(C   7,C   4,C   3,N   2)    -62.5389         0.010852   
    213. D(C   9,C   4,C   3,H  30)     55.7708         0.010852   
    214. D(C   9,C   4,C   3,N   2)    176.2288         0.010852   
    215. D(C   8,C   4,C   3,H  29)    177.6201         0.010852   
    216. D(C   9,C   4,C   3,H  29)    -61.0643         0.010852   
    217. D(C   8,C   4,C   3,H  30)    -65.5449         0.010852   
    218. D(H  32,C   5,C   0,C  10)    -61.3726         0.010843   
    219. D(H  32,C   5,C   0,C   8)    177.4132         0.010843   
    220. D(H  32,C   5,C   0,C   1)     59.9228         0.010843   
    221. D(H  31,C   5,C   0,C  10)     55.2272         0.010843   
    222. D(H  31,C   5,C   0,C   1)    176.5225         0.010843   
    223. D(N   6,C   5,C   0,C  10)    175.9016         0.010843   
    224. D(N   6,C   5,C   0,C   8)     54.6873         0.010843   
    225. D(H  31,C   5,C   0,C   8)    -65.9871         0.010843   
    226. D(N   6,C   5,C   0,C   1)    -62.8031         0.010843   
    227. D(Cu 26,N   6,C   5,H  32)    -53.1936         0.015395   
    228. D(Cu 26,N   6,C   5,H  31)   -168.9953         0.015395   
    229. D(Cu 26,N   6,C   5,C   0)     69.9469         0.015395   
    230. D(C  12,N   6,C   5,H  31)    -47.5223         0.015395   
    231. D(C  12,N   6,C   5,C   0)   -168.5801         0.015395   
    232. D(C   7,N   6,C   5,H  32)   -175.1652         0.015395   
    233. D(C   7,N   6,C   5,C   0)    -52.0247         0.015395   
    234. D(C  12,N   6,C   5,H  32)     68.2794         0.015395   
    235. D(C   7,N   6,C   5,H  31)     69.0331         0.015395   
    236. D(H  34,C   7,C   4,C   9)     60.6128         0.010897   
    237. D(H  34,C   7,C   4,C   3)    -60.5322         0.010897   
    238. D(H  33,C   7,C   4,C   9)    -57.0264         0.010897   
    239. D(H  33,C   7,C   4,C   8)     64.5884         0.010897   
    240. D(H  33,C   7,C   4,C   3)   -178.1714         0.010897   
    241. D(N   6,C   7,C   4,C   9)   -177.7945         0.010897   
    242. D(H  34,C   7,C   4,C   8)   -177.7725         0.010897   
    243. D(N   6,C   7,C   4,C   8)    -56.1797         0.010897   
    244. D(N   6,C   7,C   4,C   3)     61.0605         0.010897   
    245. D(H  34,C   7,N   6,Cu 26)     54.1801         0.015835   
    246. D(H  34,C   7,N   6,C   5)    174.8557         0.015835   
    247. D(H  33,C   7,N   6,Cu 26)    170.4753         0.015835   
    248. D(H  33,C   7,N   6,C  12)     44.1891         0.015835   
    249. D(H  33,C   7,N   6,C   5)    -68.8491         0.015835   
    250. D(C   4,C   7,N   6,Cu 26)    -68.3470         0.015835   
    251. D(H  34,C   7,N   6,C  12)    -72.1060         0.015835   
    252. D(C   4,C   7,N   6,C  12)    165.3669         0.015835   
    253. D(C   4,C   7,N   6,C   5)     52.3286         0.015835   
    254. D(O  11,C   8,C   4,C   9)      1.1753         0.011091   
    255. D(O  11,C   8,C   4,C   7)   -118.7581         0.011091   
    256. D(O  11,C   8,C   4,C   3)    120.6955         0.011091   
    257. D(C   0,C   8,C   4,C   9)   -178.9477         0.011091   
    258. D(C   0,C   8,C   4,C   7)     61.1189         0.011091   
    259. D(C   0,C   8,C   4,C   3)    -59.4274         0.011091   
    260. D(O  11,C   8,C   0,C  10)      0.6124         0.011084   
    261. D(O  11,C   8,C   0,C   5)    119.9666         0.011084   
    262. D(O  11,C   8,C   0,C   1)   -119.4337         0.011084   
    263. D(C   4,C   8,C   0,C   5)    -59.9104         0.011084   
    264. D(C   4,C   8,C   0,C   1)     60.6893         0.011084   
    265. D(C   4,C   8,C   0,C  10)   -179.2646         0.011084   
    266. D(H  37,C   9,C   4,C   8)    -59.8655         0.012055   
    267. D(H  37,C   9,C   4,C   7)     58.9300         0.012055   
    268. D(H  37,C   9,C   4,C   3)   -178.1228         0.012055   
    269. D(H  36,C   9,C   4,C   8)    179.8120         0.012055   
    270. D(H  36,C   9,C   4,C   7)    -61.3925         0.012055   
    271. D(H  36,C   9,C   4,C   3)     61.5547         0.012055   
    272. D(H  35,C   9,C   4,C   8)     59.5413         0.012055   
    273. D(H  35,C   9,C   4,C   7)    178.3368         0.012055   
    274. D(H  35,C   9,C   4,C   3)    -58.7160         0.012055   
    275. D(H  40,C  10,C   0,C   8)     58.4681         0.012004   
    276. D(H  40,C  10,C   0,C   5)    -59.5579         0.012004   
    277. D(H  40,C  10,C   0,C   1)    177.4014         0.012004   
    278. D(H  39,C  10,C   0,C   1)     58.0049         0.012004   
    279. D(H  38,C  10,C   0,C   8)    178.7779         0.012004   
    280. D(H  38,C  10,C   0,C   5)     60.7519         0.012004   
    281. D(H  38,C  10,C   0,C   1)    -62.2888         0.012004   
    282. D(H  39,C  10,C   0,C   5)   -178.9544         0.012004   
    283. D(H  39,C  10,C   0,C   8)    -60.9284         0.012004   
    284. D(H  42,C  12,N   6,C   7)    -79.7346         0.014394   
    285. D(H  42,C  12,N   6,C   5)     39.5093         0.014394   
    286. D(H  41,C  12,N   6,Cu 26)    -85.4781         0.014394   
    287. D(H  41,C  12,N   6,C   7)     38.3262         0.014394   
    288. D(H  41,C  12,N   6,C   5)    157.5701         0.014394   
    289. D(C  14,C  12,N   6,Cu 26)     44.3445         0.014394   
    290. D(C  14,C  12,N   6,C   7)    168.1488         0.014394   
    291. D(H  42,C  12,N   6,Cu 26)    156.4610         0.014394   
    292. D(C  14,C  12,N   6,C   5)    -72.6073         0.014394   
    293. D(H  44,C  13,N   2,Cu 26)    -35.2995         0.014327   
    294. D(H  44,C  13,N   2,C   1)     91.6773         0.014327   
    295. D(H  43,C  13,N   2,Cu 26)   -153.3112         0.014327   
    296. D(H  43,C  13,N   2,C   3)     89.3492         0.014327   
    297. D(H  43,C  13,N   2,C   1)    -26.3344         0.014327   
    298. D(C  20,C  13,N   2,Cu 26)     85.2097         0.014327   
    299. D(H  44,C  13,N   2,C   3)   -152.6391         0.014327   
    300. D(C  20,C  13,N   2,C   3)    -32.1299         0.014327   
    301. D(C  20,C  13,N   2,C   1)   -147.8135         0.014327   
    302. D(C  19,C  14,C  12,H  42)    165.7782         0.012952   
    303. D(C  19,C  14,C  12,H  41)     47.9688         0.012952   
    304. D(C  19,C  14,C  12,N   6)    -77.0930         0.012952   
    305. D(C  15,C  14,C  12,H  42)    -21.9694         0.012952   
    306. D(C  15,C  14,C  12,H  41)   -139.7788         0.012952   
    307. D(C  15,C  14,C  12,N   6)     95.1595         0.012952   
    308. D(C  16,C  15,C  14,C  12)   -171.7785         0.026297   
    309. D(H  45,C  15,C  14,C  19)   -179.9988         0.026297   
    310. D(H  45,C  15,C  14,C  12)      7.9058         0.026297   
    311. D(C  16,C  15,C  14,C  19)      0.3169         0.026297   
    312. D(H  46,C  16,C  15,H  45)      0.3012         0.025822   
    313. D(H  46,C  16,C  15,C  14)    179.9846         0.025822   
    314. D(C  17,C  16,C  15,H  45)   -179.2064         0.025822   
    315. D(C  17,C  16,C  15,C  14)      0.4769         0.025822   
    316. D(H  47,C  17,C  16,H  46)      0.4609         0.025557   
    317. D(H  47,C  17,C  16,C  15)    179.9670         0.025557   
    318. D(C  18,C  17,C  16,H  46)    179.2176         0.025557   
    319. D(C  18,C  17,C  16,C  15)     -1.2762         0.025557   
    320. D(H  48,C  18,C  17,H  47)      2.1928         0.027039   
    321. D(H  48,C  18,C  17,C  16)   -176.5657         0.027039   
    322. D(C  19,C  18,C  17,H  47)   -179.9733         0.027039   
    323. D(C  19,C  18,C  17,C  16)      1.2682         0.027039   
    324. D(H  49,C  19,C  18,H  48)      9.9654         0.023778   
    325. D(H  49,C  19,C  18,C  17)   -167.8541         0.023778   
    326. D(C  14,C  19,C  18,H  48)    177.3398         0.023778   
    327. D(C  14,C  19,C  18,C  17)     -0.4797         0.023778   
    328. D(H  49,C  19,C  14,C  15)    167.0715         0.022258   
    329. D(H  49,C  19,C  14,C  12)    -20.4382         0.022258   
    330. D(C  18,C  19,C  14,C  15)     -0.3159         0.022258   
    331. D(C  18,C  19,C  14,C  12)    172.1744         0.022258   
    332. D(C  25,C  20,C  13,H  44)   -145.0466         0.012989   
    333. D(C  25,C  20,C  13,H  43)    -21.7916         0.012989   
    334. D(C  25,C  20,C  13,N   2)     97.7622         0.012989   
    335. D(C  21,C  20,C  13,H  44)     42.2748         0.012989   
    336. D(C  21,C  20,C  13,H  43)    165.5298         0.012989   
    337. D(C  21,C  20,C  13,N   2)    -74.9164         0.012989   
    338. D(H  50,C  21,C  20,C  25)    168.4103         0.022769   
    339. D(H  50,C  21,C  20,C  13)    -18.6893         0.022769   
    340. D(C  22,C  21,C  20,C  25)     -0.4077         0.022769   
    341. D(C  22,C  21,C  20,C  13)    172.4927         0.022769   
    342. D(H  51,C  22,C  21,H  50)      8.7386         0.023896   
    343. D(H  51,C  22,C  21,C  20)    177.5450         0.023896   
    344. D(C  23,C  22,C  21,H  50)   -168.9326         0.023896   
    345. D(C  23,C  22,C  21,C  20)     -0.1262         0.023896   
    346. D(H  52,C  23,C  22,H  51)      2.0520         0.027141   
    347. D(H  52,C  23,C  22,C  21)    179.7384         0.027141   
    348. D(C  24,C  23,C  22,H  51)   -176.8513         0.027141   
    349. D(C  24,C  23,C  22,C  21)      0.8352         0.027141   
    350. D(H  53,C  24,C  23,H  52)      0.4202         0.025366   
    351. D(H  53,C  24,C  23,C  22)    179.3219         0.025366   
    352. D(C  25,C  24,C  23,H  52)   -179.9232         0.025366   
    353. D(C  25,C  24,C  23,C  22)     -1.0215         0.025366   
    354. D(H  54,C  25,C  24,H  53)      0.4107         0.026029   
    355. D(H  54,C  25,C  24,C  23)   -179.2469         0.026029   
    356. D(C  20,C  25,C  24,H  53)   -179.8591         0.026029   
    357. D(C  20,C  25,C  24,C  23)      0.4833         0.026029   
    358. D(H  54,C  25,C  20,C  21)    179.9616         0.026011   
    359. D(H  54,C  25,C  20,C  13)      7.4240         0.026011   
    360. D(C  24,C  25,C  20,C  21)      0.2296         0.026011   
    361. D(C  24,C  25,C  20,C  13)   -172.3080         0.026011   
    362. D(Cl 56,Cu 26,N   6,C  12)     57.4243         0.002828   
    363. D(Cl 56,Cu 26,N   6,C   7)    -65.4440         0.002828   
    364. D(Cl 56,Cu 26,N   6,C   5)    171.3212         0.002828   
    365. D(Cl 55,Cu 26,N   6,C  12)    -16.5838         0.002828   
    366. D(Cl 55,Cu 26,N   6,C   7)   -139.4521         0.002828   
    367. D(Cl 55,Cu 26,N   6,C   5)     97.3131         0.002828   
    368. D(N   2,Cu 26,N   6,C  12)   -175.4175         0.002828   
    369. D(N   2,Cu 26,N   6,C   7)     61.7142         0.002828   
    370. D(N   2,Cu 26,N   6,C   5)    -61.5206         0.002828   
    371. D(Cl 56,Cu 26,N   2,C  13)    -51.6084         0.003021   
    372. D(Cl 56,Cu 26,N   2,C   3)     59.9175         0.003021   
    373. D(Cl 56,Cu 26,N   2,C   1)   -176.7661         0.003021   
    374. D(Cl 55,Cu 26,N   2,C  13)     23.9185         0.003021   
    375. D(Cl 55,Cu 26,N   2,C   3)    135.4445         0.003021   
    376. D(Cl 55,Cu 26,N   2,C   1)   -101.2391         0.003021   
    377. D(N   6,Cu 26,N   2,C  13)   -172.6937         0.003021   
    378. D(N   6,Cu 26,N   2,C   3)    -61.1677         0.003021   
    379. D(N   6,Cu 26,N   2,C   1)     62.1487         0.003021   
    380. D(Cl 56,Cl 55,Cu 26,N   6)     95.9688         0.001568   
    381. D(Cl 56,Cl 55,Cu 26,N   2)   -111.2091         0.001568   
    382. D(Cl 55,Cl 56,Cu 26,N   6)   -135.8366         0.001689   
    383. D(Cl 55,Cl 56,Cu 26,N   2)    117.5880         0.001689   
    -----------------------------------------------------------------

Number of atoms                         .... 57
Number of degrees of freedom            .... 383

         *************************************************************
         *                GEOMETRY OPTIMIZATION CYCLE   1            *
         *************************************************************
---------------------------------
CARTESIAN COORDINATES (ANGSTROEM)
---------------------------------
  C     -1.216833   -1.004596    2.125596
  C     -0.685415   -1.815039    0.938243
  N      0.140651   -1.018105    0.018415
  C      1.231062   -0.317811    0.724929
  C      0.768848    0.524179    1.920788
  C     -2.103313    0.164996    1.679245
  N     -1.408018    1.176525    0.862537
  C     -0.173082    1.658125    1.499168
  C     -0.016504   -0.400385    2.838612
  C      1.984671    1.113683    2.614176
  C     -2.020043   -1.916515    3.037530
  O      0.274075   -0.624048    3.986095
  C     -2.384438    2.292677    0.820250
  C      0.978443   -1.978805   -0.741872
  C     -3.554864    1.973933   -0.060563
  C     -4.746342    1.449983    0.437314
  C     -5.737910    1.012470   -0.442422
  C     -5.547425    1.083827   -1.824774
  C     -4.370414    1.619723   -2.334237
  C     -3.362559    2.064436   -1.459667
  C      2.255910   -1.242796   -1.011113
  C      2.236139   -0.242436   -2.007706
  C      3.356897    0.585825   -2.193452
  C      4.481363    0.420317   -1.394118
  C      4.502395   -0.581043   -0.418511
  C      3.394996   -1.406270   -0.222630
  Cu    -0.991597    0.345782   -0.953551
  H     -0.073886   -2.653718    1.315126
  H     -1.521792   -2.252900    0.372170
  H      1.769904    0.320969    0.009077
  H      1.945186   -1.079533    1.083149
  H     -2.503247    0.668162    2.577211
  H     -2.967105   -0.218018    1.114858
  H     -0.447926    2.250208    2.389711
  H      0.339016    2.335953    0.799042
  H      2.660155    0.315556    2.951569
  H      2.535414    1.774124    1.929258
  H      1.678734    1.694425    3.495062
  H     -2.892307   -2.322128    2.505098
  H     -1.399696   -2.753660    3.386028
  H     -2.371654   -1.364676    3.919874
  H     -1.833814    3.217053    0.597825
  H     -2.867734    2.403611    1.802799
  H      1.129974   -2.894336   -0.149905
  H      0.437945   -2.245908   -1.660730
  H     -4.899717    1.377988    1.516367
  H     -6.668494    0.602980   -0.043185
  H     -6.328856    0.738554   -2.504238
  H     -4.248682    1.725565   -3.413385
  H     -2.527695    2.666180   -1.853859
  H      1.424560   -0.234918   -2.752647
  H      3.363737    1.333716   -2.987342
  H      5.353483    1.060314   -1.540735
  H      5.391446   -0.716740    0.201309
  H      3.412489   -2.178826    0.549202
  Cl    -1.893831    0.218861   -3.347228
  Cl    -0.140595    1.828740   -2.658145

----------------------------
CARTESIAN COORDINATES (A.U.)
----------------------------
  NO LB      ZA    FRAG     MASS         X           Y           Z
   0 C     6.0000    0    12.011   -2.299482   -1.898412    4.016794
   1 C     6.0000    0    12.011   -1.295247   -3.429926    1.773022
   2 N     7.0000    0    14.007    0.265792   -1.923939    0.034798
   3 C     6.0000    0    12.011    2.326371   -0.600576    1.369917
   4 C     6.0000    0    12.011    1.452913    0.990554    3.629763
   5 C     6.0000    0    12.011   -3.974686    0.311797    3.173313
   6 N     7.0000    0    14.007   -2.660768    2.223311    1.629959
   7 C     6.0000    0    12.011   -0.327077    3.133402    2.833016
   8 C     6.0000    0    12.011   -0.031188   -0.756619    5.364200
   9 C     6.0000    0    12.011    3.750484    2.104555    4.940076
  10 C     6.0000    0    12.011   -3.817327   -3.621689    5.740100
  11 O     8.0000    0    15.999    0.517926   -1.179279    7.532627
  12 C     6.0000    0    12.011   -4.505935    4.332532    1.550049
  13 C     6.0000    0    12.011    1.848989   -3.739400   -1.401935
  14 C     6.0000    0    12.011   -6.717720    3.730192   -0.114447
  15 C     6.0000    0    12.011   -8.969286    2.740071    0.826403
  16 C     6.0000    0    12.011  -10.843078    1.913291   -0.836057
  17 C     6.0000    0    12.011  -10.483114    2.048135   -3.448323
  18 C     6.0000    0    12.011   -8.258886    3.060834   -4.411069
  19 C     6.0000    0    12.011   -6.354315    3.901219   -2.758370
  20 C     6.0000    0    12.011    4.263053   -2.348543   -1.910726
  21 C     6.0000    0    12.011    4.225690   -0.458137   -3.794014
  22 C     6.0000    0    12.011    6.343616    1.107049   -4.145024
  23 C     6.0000    0    12.011    8.468549    0.794284   -2.634501
  24 C     6.0000    0    12.011    8.508294   -1.098012   -0.790871
  25 C     6.0000    0    12.011    6.415612   -2.657464   -0.420709
  26 Cu   29.0000    0    63.550   -1.873846    0.653434   -1.801950
  27 H     1.0000    0     1.008   -0.139625   -5.014801    2.485227
  28 H     1.0000    0     1.008   -2.875770   -4.257363    0.703300
  29 H     1.0000    0     1.008    3.344634    0.606544    0.017153
  30 H     1.0000    0     1.008    3.675869   -2.040023    2.046856
  31 H     1.0000    0     1.008   -4.730452    1.262644    4.870224
  32 H     1.0000    0     1.008   -5.607016   -0.411995    2.106776
  33 H     1.0000    0     1.008   -0.846458    4.252277    4.515899
  34 H     1.0000    0     1.008    0.640648    4.414312    1.509971
  35 H     1.0000    0     1.008    5.026965    0.596315    5.577657
  36 H     1.0000    0     1.008    4.791238    3.352608    3.645770
  37 H     1.0000    0     1.008    3.172348    3.201999    6.604711
  38 H     1.0000    0     1.008   -5.465669   -4.388185    4.733949
  39 H     1.0000    0     1.008   -2.645042   -5.203663    6.398665
  40 H     1.0000    0     1.008   -4.481777   -2.578864    7.407488
  41 H     1.0000    0     1.008   -3.465406    6.079349    1.129726
  42 H     1.0000    0     1.008   -5.419233    4.542166    3.406796
  43 H     1.0000    0     1.008    2.135341   -5.469502   -0.283280
  44 H     1.0000    0     1.008    0.827595   -4.244151   -3.138324
  45 H     1.0000    0     1.008   -9.259123    2.604021    2.865519
  46 H     1.0000    0     1.008  -12.601627    1.139467   -0.081607
  47 H     1.0000    0     1.008  -11.959805    1.395665   -4.732324
  48 H     1.0000    0     1.008   -8.028846    3.260845   -6.450363
  49 H     1.0000    0     1.008   -4.776652    5.038350   -3.503287
  50 H     1.0000    0     1.008    2.692028   -0.443931   -5.201750
  51 H     1.0000    0     1.008    6.356542    2.520359   -5.645259
  52 H     1.0000    0     1.008   10.116617    2.003703   -2.911567
  53 H     1.0000    0     1.008   10.188357   -1.354442    0.380419
  54 H     1.0000    0     1.008    6.448669   -4.117385    1.037842
  55 Cl   17.0000    0    35.453   -3.578822    0.413588   -6.325344
  56 Cl   17.0000    0    35.453   -0.265687    3.455818   -5.023166

--------------------------------
INTERNAL COORDINATES (ANGSTROEM)
--------------------------------
 C      0   0   0     0.000000000000     0.00000000     0.00000000
 C      1   0   0     1.532654309289     0.00000000     0.00000000
 N      2   1   0     1.470908914175   113.12198373     0.00000000
 C      3   2   1     1.475998066031   111.87694140    53.14558777
 C      4   3   2     1.533840853072   114.26896805   307.28913817
 C      1   2   3     1.533955734653   112.21815429    60.51849975
 N      6   1   2     1.474326644895   114.31636319   297.19689816
 C      7   6   1     1.470477162510   112.39171713   307.97529346
 C      5   4   3     1.521183276205   106.99840848    54.91319142
 C      5   4   3     1.518724606477   109.13468198   176.22884588
 C      1   2   3     1.519330924743   109.32428060   181.66972747
 O      9   5   4     1.204648018160   124.26650047   120.69554297
 C      7   6   1     1.483569918394   102.80189021   191.41990593
 C      3   2   1     1.484209135011   106.65733030   158.94786822
 C     13   7   6     1.499108781280   111.75488359   287.39271622
 C     15  13   7     1.393564413263   122.51727741    95.15947872
 C     16  15  13     1.395908484940   120.00075078   188.22153960
 C     17  16  15     1.397237552687   120.70804727     0.47692542
 C     18  17  16     1.389997689239   119.85095428   358.72377781
 C     19  18  17     1.406561607832   120.04930581     1.26823340
 C     14   3   2     1.498707334566   104.79079767   212.18651345
 C     21  14   3     1.412199661993   117.56293847   285.08364677
 C     22  21  14     1.405921924479   119.95977181   172.49273529
 C     23  22  21     1.389515564964   119.92964389   359.87375214
 C     24  23  22     1.398203445291   119.92533756     0.83515406
 C     25  24  23     1.394884232796   120.64647875   358.97853064
 Cu     3   2   1     2.021605572804   110.58809843   291.57351071
 H      2   1   3     1.104260780443   109.22136064   120.68740039
 H      2   1   3     1.100766231816   110.19900184   238.08985163
 H      4   3   2     1.100379111219   109.01340270   184.24259094
 H      4   3   2     1.103863844139   107.81024598    68.24568447
 H      6   1   2     1.104295284335   108.66879763   176.52250420
 H      6   1   2     1.100622378821   109.72015185    59.92276531
 H      8   7   6     1.104160013702   108.40660061   291.15087217
 H      8   7   6     1.100850142962   108.48075788   174.85574102
 H     10   5   4     1.098690054610   110.51306509   301.28404528
 H     10   5   4     1.099369159285   110.47456165    61.55471432
 H     10   5   4     1.098553650961   110.38621167   181.87721848
 H     11   1   2     1.099477795401   110.49788174   297.71121174
 H     11   1   2     1.098676981376   110.43998325    58.00489754
 H     11   1   2     1.098493381446   110.47571261   177.40142949
 H     13   7   6     1.098694825049   107.99311117   157.57010453
 H     13   7   6     1.100583302483   109.84035100    39.50927583
 H     14   3   2     1.100719302545   109.91344743   333.66562074
 H     14   3   2     1.098991103181   107.93826228    91.67727638
 H     16  15  13     1.092274914770   119.85331859     7.90579777
 H     17  16  15     1.092272351862   119.49426475   179.98456738
 H     18  17  16     1.091567014409   120.13808403   179.96704754
 H     19  18  17     1.091137443360   119.62760882   183.43433299
 H     20  19  18     1.102034909063   119.54161451   192.14591208
 H     22  21  14     1.101660247474   119.49471905   341.31067968
 H     23  22  21     1.090710528967   120.33931885   177.54501773
 H     24  23  22     1.091643810360   119.96166797   179.73844825
 H     25  24  23     1.092246417669   119.81344085   179.32188292
 H     26  25  24     1.092187785859   120.33111799   180.75307858
 Cl    27   3   2     2.561215783211   127.82140425   258.76090547
 Cl    27   3   2     2.414333807194   123.80937350   183.23394256

---------------------------
INTERNAL COORDINATES (A.U.)
---------------------------
 C      0   0   0     0.000000000000     0.00000000     0.00000000
 C      1   0   0     2.896296902531     0.00000000     0.00000000
 N      2   1   0     2.779615015734   113.12198373     0.00000000
 C      3   2   1     2.789232118996   111.87694140    53.14558777
 C      4   3   2     2.898539145326   114.26896805   307.28913817
 C      1   2   3     2.898756240052   112.21815429    60.51849975
 N      6   1   2     2.786073590795   114.31636319   297.19689816
 C      7   6   1     2.778799123329   112.39171713   307.97529346
 C      5   4   3     2.874619791529   106.99840848    54.91319142
 C      5   4   3     2.869973579089   109.13468198   176.22884588
 C      1   2   3     2.871119354561   109.32428060   181.66972747
 O      9   5   4     2.276454842093   124.26650047   120.69554297
 C      7   6   1     2.803540846289   102.80189021   191.41990593
 C      3   2   1     2.804748790635   106.65733030   158.94786822
 C     13   7   6     2.832905041575   111.75488359   287.39271622
 C     15  13   7     2.633455091046   122.51727741    95.15947872
 C     16  15  13     2.637884744553   120.00075078   188.22153960
 C     17  16  15     2.640396318608   120.70804727     0.47692542
 C     18  17  16     2.626714959445   119.85095428   358.72377781
 C     19  18  17     2.658016229291   120.04930581     1.26823340
 C     14   3   2     2.832146417228   104.79079767   212.18651345
 C     21  14   3     2.668670607583   117.56293847   285.08364677
 C     22  21  14     2.656807402941   119.95977181   172.49273529
 C     23  22  21     2.625803876603   119.92964389   359.87375214
 C     24  23  22     2.642221591106   119.92533756     0.83515406
 C     25  24  23     2.635949188510   120.64647875   358.97853064
 Cu     3   2   1     3.820280883409   110.58809843   291.57351071
 H      2   1   3     2.086750455468   109.22136064   120.68740039
 H      2   1   3     2.080146715601   110.19900184   238.08985163
 H      4   3   2     2.079415163691   109.01340270   184.24259094
 H      4   3   2     2.086000354560   107.81024598    68.24568447
 H      6   1   2     2.086815658374   108.66879763   176.52250420
 H      6   1   2     2.079874872837   109.72015185    59.92276531
 H      8   7   6     2.086560033924   108.40660061   291.15087217
 H      8   7   6     2.080305284686   108.48075788   174.85574102
 H     10   5   4     2.076223309277   110.51306509   301.28404528
 H     10   5   4     2.077506631128   110.47456165    61.55471432
 H     10   5   4     2.075965543736   110.38621167   181.87721848
 H     11   1   2     2.077711923635   110.49788174   297.71121174
 H     11   1   2     2.076198604445   110.43998325    58.00489754
 H     11   1   2     2.075851650859   110.47571261   177.40142949
 H     13   7   6     2.076232324099   107.99311117   157.57010453
 H     13   7   6     2.079801029259   109.84035100    39.50927583
 H     14   3   2     2.080058032130   109.91344743   333.66562074
 H     14   3   2     2.076792208628   107.93826228    91.67727638
 H     16  15  13     2.064100451867   119.85331859     7.90579777
 H     17  16  15     2.064095608673   119.49426475   179.98456738
 H     18  17  16     2.062762714056   120.13808403   179.96704754
 H     19  18  17     2.061950942418   119.62760882   183.43433299
 H     20  19  18     2.082544168149   119.54161451   192.14591208
 H     22  21  14     2.081836160354   119.49471905   341.31067968
 H     23  22  21     2.061144191131   120.33931885   177.54501773
 H     24  23  22     2.062907837370   119.96166797   179.73844825
 H     25  24  23     2.064046600150   119.81344085   179.32188292
 H     26  25  24     2.063935802088   120.33111799   180.75307858
 Cl    27   3   2     4.839996400145   127.82140425   258.76090547
 Cl    27   3   2     4.562429691463   123.80937350   183.23394256

---------------------
BASIS SET INFORMATION
---------------------
There are 6 groups of distinct atoms

 Group   1 Type C   : 7s4p1d contracted to 3s2p1d pattern {511/31/1}
 Group   2 Type N   : 7s4p1d contracted to 3s2p1d pattern {511/31/1}
 Group   3 Type O   : 7s4p1d contracted to 3s2p1d pattern {511/31/1}
 Group   4 Type Cu  : 14s9p5d1f contracted to 5s3p2d1f pattern {63311/531/41/1}
 Group   5 Type H   : 4s1p contracted to 2s1p pattern {31/1}
 Group   6 Type Cl  : 10s7p1d contracted to 4s3p1d pattern {5311/511/1}

Atom   0C    basis set group =>   1
Atom   1C    basis set group =>   1
Atom   2N    basis set group =>   2
Atom   3C    basis set group =>   1
Atom   4C    basis set group =>   1
Atom   5C    basis set group =>   1
Atom   6N    basis set group =>   2
Atom   7C    basis set group =>   1
Atom   8C    basis set group =>   1
Atom   9C    basis set group =>   1
Atom  10C    basis set group =>   1
Atom  11O    basis set group =>   3
Atom  12C    basis set group =>   1
Atom  13C    basis set group =>   1
Atom  14C    basis set group =>   1
Atom  15C    basis set group =>   1
Atom  16C    basis set group =>   1
Atom  17C    basis set group =>   1
Atom  18C    basis set group =>   1
Atom  19C    basis set group =>   1
Atom  20C    basis set group =>   1
Atom  21C    basis set group =>   1
Atom  22C    basis set group =>   1
Atom  23C    basis set group =>   1
Atom  24C    basis set group =>   1
Atom  25C    basis set group =>   1
Atom  26Cu   basis set group =>   4
Atom  27H    basis set group =>   5
Atom  28H    basis set group =>   5
Atom  29H    basis set group =>   5
Atom  30H    basis set group =>   5
Atom  31H    basis set group =>   5
Atom  32H    basis set group =>   5
Atom  33H    basis set group =>   5
Atom  34H    basis set group =>   5
Atom  35H    basis set group =>   5
Atom  36H    basis set group =>   5
Atom  37H    basis set group =>   5
Atom  38H    basis set group =>   5
Atom  39H    basis set group =>   5
Atom  40H    basis set group =>   5
Atom  41H    basis set group =>   5
Atom  42H    basis set group =>   5
Atom  43H    basis set group =>   5
Atom  44H    basis set group =>   5
Atom  45H    basis set group =>   5
Atom  46H    basis set group =>   5
Atom  47H    basis set group =>   5
Atom  48H    basis set group =>   5
Atom  49H    basis set group =>   5
Atom  50H    basis set group =>   5
Atom  51H    basis set group =>   5
Atom  52H    basis set group =>   5
Atom  53H    basis set group =>   5
Atom  54H    basis set group =>   5
Atom  55Cl   basis set group =>   6
Atom  56Cl   basis set group =>   6


           ************************************************************
           *        Program running with 3 parallel MPI-processes     *
           *              working on a common directory               *
           ************************************************************
------------------------------------------------------------------------------
                           ORCA GTO INTEGRAL CALCULATION
------------------------------------------------------------------------------

                         BASIS SET STATISTICS AND STARTUP INFO

 # of primitive gaussian shells          ...  517
 # of primitive gaussian functions       ...  965
 # of contracted shells                  ...  267
 # of contracted basis functions         ...  571
 Highest angular momentum                ...    3
 Maximum contraction depth               ...    6
 Integral package used                   ... LIBINT
 Integral threshhold            Thresh   ...  2.500e-11
 Primitive cut-off              TCut     ...  2.500e-12


------------------------------ INTEGRAL EVALUATION ----------------------------


 * One electron integrals 
 Pre-screening matrix                    ... done
 Shell pair data                         ... done (   0.012 sec)

Timings:
 Total evaluation time               ...     0.021 sec (   0.000 min)
 One electron matrix time            ...     0.294 sec (   0.005 min) =1400.0%
 Schwartz matrix evaluation time     ...     0.344 sec (   0.006 min) =1638.1%



           ************************************************************
           *        Program running with 3 parallel MPI-processes     *
           *              working on a common directory               *
           ************************************************************
-------------------------------------------------------------------------------
                                 ORCA SCF
-------------------------------------------------------------------------------

------------
SCF SETTINGS
------------
Hamiltonian:
 Density Functional     Method          .... DFT(GTOs)
 Exchange Functional    Exchange        .... PBE
   PBE kappa parameter   XKappa         ....  0.804000
   PBE mue parameter    XMuePBE         ....  0.219520
 Correlation Functional Correlation     .... PBE
   PBE beta parameter  CBetaPBE         ....  0.066725
 LDA part of GGA corr.  LDAOpt          .... PW91-LDA
 Gradients option       PostSCFGGA      .... off
 Hybrid DFT is turned on
   Fraction HF Exchange ScalHFX         ....  0.250000
   Scaling of DF-GGA-X  ScalDFX         ....  0.750000
   Scaling of DF-GGA-C  ScalDFC         ....  1.000000
   Scaling of DF-LDA-C  ScalLDAC        ....  1.000000
   Perturbative correction              ....  0.000000
   Density functional embedding theory  .... OFF
   NL short-range parameter             ....  6.900000


General Settings:
 Integral files         IntName         .... culcl2
 Hartree-Fock type      HFTyp           .... UHF
 Total Charge           Charge          ....    0
 Multiplicity           Mult            ....    2
 Number of Electrons    NEL             ....  251
 Basis Dimension        Dim             ....  571
 Nuclear Repulsion      ENuc            ....   4198.2537570924 Eh

Convergence Acceleration:
 DIIS                   CNVDIIS         .... on
   Start iteration      DIISMaxIt       ....    12
   Startup error        DIISStart       ....  0.200000
   # of expansion vecs  DIISMaxEq       ....     5
   Bias factor          DIISBfac        ....   1.050
   Max. coefficient     DIISMaxC        ....  10.000
 Newton-Raphson         CNVNR           .... off
 SOSCF                  CNVSOSCF        .... off
 Level Shifting         CNVShift        .... on
   Level shift para.    LevelShift      ....    0.2500
   Turn off err/grad.   ShiftErr        ....    0.0010
 Zerner damping         CNVZerner       .... off
 Static damping         CNVDamp         .... on
   Fraction old density DampFac         ....    0.7000
   Max. Damping (<1)    DampMax         ....    0.9800
   Min. Damping (>=0)   DampMin         ....    0.0000
   Turn off err/grad.   DampErr         ....    0.1000
 Fernandez-Rico         CNVRico         .... off

SCF Procedure:
 Maximum # iterations   MaxIter         ....   125
 SCF integral mode      SCFMode         .... Direct
   Integral package                     .... LIBINT
 Reset frequency        DirectResetFreq ....    20
 Integral Threshold     Thresh          ....  2.500e-11 Eh
 Primitive CutOff       TCut            ....  2.500e-12 Eh

Convergence Tolerance:
 Convergence Check Mode ConvCheckMode   .... Total+1el-Energy
 Convergence forced     ConvForced      .... 0
 Energy Change          TolE            ....  1.000e-08 Eh
 1-El. energy change                    ....  1.000e-05 Eh
 DIIS Error             TolErr          ....  5.000e-07


Diagonalization of the overlap matrix:
Smallest eigenvalue                        ... 2.628e-04
Time for diagonalization                   ...    0.121 sec
Threshold for overlap eigenvalues          ... 1.000e-08
Number of eigenvalues below threshold      ... 0
Time for construction of square roots      ...    0.075 sec
Total time needed                          ...    0.197 sec

-------------------
DFT GRID GENERATION
-------------------

General Integration Accuracy     IntAcc      ...  4.670
Radial Grid Type                 RadialGrid  ... Gauss-Chebyshev
Angular Grid (max. acc.)         AngularGrid ... Lebedev-302
Angular grid pruning method      GridPruning ... 3 (G Style)
Weight generation scheme         WeightScheme... Becke
Basis function cutoff            BFCut       ...    1.0000e-11
Integration weight cutoff        WCut        ...    1.0000e-14
Grids for H and He will be reduced by one unit

# of grid points (after initial pruning)     ... 279576 (   0.1 sec)
# of grid points (after weights+screening)   ... 234831 (   1.4 sec)
nearest neighbour list constructed           ...    0.0 sec
Grid point re-assignment to atoms done       ...    0.1 sec
Grid point division into batches done        ...    0.7 sec
Reduced shell lists constructed in    2.9 sec

Total number of grid points                  ...   234831
Total number of batches                      ...     3698
Average number of points per batch           ...       63
Average number of grid points per atom       ...     4120
Average number of shells per batch           ...   135.56 (50.77%)
Average number of basis functions per batch  ...   269.16 (47.14%)
Average number of large shells per batch     ...    88.30 (65.14%)
Average number of large basis fcns per batch ...   174.83 (64.96%)
Maximum spatial batch extension              ...  13.62, 18.30, 19.09 au
Average spatial batch extension              ...   0.43,  0.45,  0.41 au

Time for grid setup =    4.697 sec

------------------------------
INITIAL GUESS: MODEL POTENTIAL
------------------------------
Loading Hartree-Fock densities                     ... done
Calculating cut-offs                               ... done
Setting up the integral package                    ... done
Initializing the effective Hamiltonian             ... done
Starting the Coulomb interaction                   ... done (   0.8 sec)
Reading the grid                                   ... done
Mapping shells                                     ... done
Starting the XC term evaluation                    ... done (   2.4 sec)
  promolecular density results
     # of electrons  =    250.987103420
     EX              =   -267.605670202
     EC              =     -9.093161445
     EX+EC           =   -276.698831647
Transforming the Hamiltonian                       ... done (   0.1 sec)
Diagonalizing the Hamiltonian                      ... done (   0.1 sec)
Back transforming the eigenvectors                 ... done (   0.0 sec)
Now organizing SCF variables                       ... done
                      ------------------
                      INITIAL GUESS DONE (   8.4 sec)
                      ------------------

--------------------
CPCM SOLVATION MODEL
--------------------
CPCM parameters:
  Epsilon                                         ...      80.4000
  Refrac                                          ...       1.3300
  Rsolv                                           ...       1.3000
  Surface type                                    ...    GEPOL SES
  Epsilon function type                           ...         CPCM
Radii:
 Radius for C  used is    3.7795 Bohr (=   2.0000 Ang.)
 Radius for N  used is    3.4582 Bohr (=   1.8300 Ang.)
 Radius for O  used is    3.2503 Bohr (=   1.7200 Ang.)
 Radius for Cu used is    4.2009 Bohr (=   2.2230 Ang.)
 Radius for H  used is    2.4566 Bohr (=   1.3000 Ang.)
 Radius for Cl used is    3.8739 Bohr (=   2.0500 Ang.)
Calculating surface                               ...        done! (  0.3s)
GEPOL surface points                              ...         1788
GEPOL Volume                                      ...    3372.4132
GEPOL Surface-area                                ...    1405.9206
Calculating surface distance matrix               ...        done! (  0.0s)
Performing Cholesky decomposition & store         ...        done! (  0.3s)
Overall time for CPCM initialization              ...                 0.5s
--------------
SCF ITERATIONS
--------------
ITER       Energy         Delta-E        Max-DP      RMS-DP      [F,P]     Damp
               ***  Starting incremental Fock matrix formation  ***
  0  -3635.4156939387   0.000000000000 0.05493138  0.00060968  0.2131474 0.7000
  1  -3635.6152097931  -0.199515854385 0.03759790  0.00042724  0.0922756 0.7000
                               ***Turning on DIIS***
  2  -3635.7045477678  -0.089337974736 0.04387661  0.00077456  0.0323424 0.0000
  3  -3635.8421439350  -0.137596167186 0.02861099  0.00027311  0.0435997 0.0000
  4  -3635.8705458679  -0.028401932964 0.00676517  0.00007634  0.0117833 0.0000
  5  -3635.8717639943  -0.001218126363 0.00538269  0.00004210  0.0103053 0.0000
  6  -3635.8720352019  -0.000271207642 0.00150056  0.00001528  0.0049175 0.0000
  7  -3635.8720686211  -0.000033419125 0.00052462  0.00000677  0.0021352 0.0000
  8  -3635.8720838741  -0.000015253041 0.00125823  0.00001084  0.0001989 0.0000
  9  -3635.8720961546  -0.000012280449 0.00057817  0.00000503  0.0004499 0.0000
 10  -3635.8721003933  -0.000004238740 0.00045066  0.00000384  0.0003759 0.0000
 11  -3635.8721026914  -0.000002298125 0.00093595  0.00000722  0.0001764 0.0000
 12  -3635.8721058101  -0.000003118698 0.00075161  0.00000626  0.0003442 0.0000
 13  -3635.8721073113  -0.000001501197 0.00021219  0.00000113  0.0001911 0.0000
 14  -3635.8721073916  -0.000000080315 0.00052410  0.00000405  0.0002776 0.0000
 15  -3635.8721078274  -0.000000435729 0.00005516  0.00000028  0.0000322 0.0000
 16  -3635.8721078440  -0.000000016594 0.00013357  0.00000096  0.0000732 0.0000
 17  -3635.8721078693  -0.000000025294 0.00008375  0.00000059  0.0000290 0.0000
 18  -3635.8721078674   0.000000001819 0.00001183  0.00000008  0.0000057 0.0000
 19  -3635.8721078802  -0.000000012782 0.00001044  0.00000007  0.0000030 0.0000
               *** Restarting incremental Fock matrix formation ***
                                   *** Resetting DIIS ***
 20  -3635.8721078504   0.000000029811 0.00000984  0.00000016  0.0000022 0.0000
 21  -3635.8721077927   0.000000057704 0.00000291  0.00000002  0.0000042 0.0000
 22  -3635.8721077768   0.000000015913 0.00000263  0.00000002  0.0000017 0.0000
 23  -3635.8721077608   0.000000016006 0.00000434  0.00000003  0.0000014 0.0000
                            ***DIIS convergence achieved***

               *****************************************************
               *                     SUCCESS                       *
               *           SCF CONVERGED AFTER  24 CYCLES          *
               *****************************************************

Setting up the final grid:

General Integration Accuracy     IntAcc      ...  5.010
Radial Grid Type                 RadialGrid  ... Gauss-Chebyshev
Angular Grid (max. acc.)         AngularGrid ... Lebedev-434
Angular grid pruning method      GridPruning ... 3 (G Style)
Weight generation scheme         WeightScheme... Becke
Basis function cutoff            BFCut       ...    1.0000e-11
Integration weight cutoff        WCut        ...    1.0000e-14
Grids for H and He will be reduced by one unit

# of grid points (after initial pruning)     ... 505206 (   0.1 sec)
# of grid points (after weights+screening)   ... 423257 (   2.4 sec)
nearest neighbour list constructed           ...    0.0 sec
Grid point re-assignment to atoms done       ...    0.1 sec
Grid point division into batches done        ...    2.8 sec
Reduced shell lists constructed in    5.8 sec

Total number of grid points                  ...   423257
Total number of batches                      ...     6641
Average number of points per batch           ...       63
Average number of grid points per atom       ...     7426
Average number of shells per batch           ...   131.94 (49.42%)
Average number of basis functions per batch  ...   261.08 (45.72%)
Average number of large shells per batch     ...    85.55 (64.84%)
Average number of large basis fcns per batch ...   168.88 (64.68%)
Maximum spatial batch extension              ...  13.75, 15.95, 20.48 au
Average spatial batch extension              ...   0.35,  0.36,  0.34 au

Final grid set up in    9.0 sec
Final integration                            ... done (  14.3 sec)
Change in XC energy                          ...     0.000542188
Integrated number of electrons               ...   251.000056510
Previous integrated no of electrons          ...   251.000258087

----------------
TOTAL SCF ENERGY
----------------

Total Energy       :        -3635.87156552 Eh          -98937.09516 eV

Components:
Nuclear Repulsion  :         4198.25375709 Eh          114240.29259 eV
Electronic Energy  :        -7834.12532262 Eh         -213177.38776 eV
One Electron Energy:       -13383.46681652 Eh         -364182.64677 eV
Two Electron Energy:         5549.34149391 Eh          151005.25901 eV
CPCM Dielectric    :           -0.03466894 Eh              -0.94339 eV

Virial components:
Potential Energy   :        -7255.89245886 Eh         -197442.87161 eV
Kinetic Energy     :         3620.02089334 Eh           98505.77644 eV
Virial Ratio       :            2.00437861


DFT components:
N(Alpha)           :      126.000028043372 electrons
N(Beta)            :      125.000028466671 electrons
N(Total)           :      251.000056510043 electrons
E(X)               :     -202.781495350988 Eh       
E(C)               :       -9.079197613460 Eh       
E(XC)              :     -211.860692964448 Eh       
DFET-embed. en.    :        0.000000000000 Eh       
CPCM Solvation Model Properties:
Surface-charge          :           -0.03323011
Charge-correction       :           -0.00008635 Eh              -0.00235 eV
Free-energy (cav+disp)  :            0.00634882 Eh               0.17276 eV
Corrected G(solv)       :        -3635.86530306 Eh          -98936.92475 eV

---------------
SCF CONVERGENCE
---------------

  Last Energy change         ...    4.9992e-08  Tolerance :   1.0000e-08
  Last MAX-Density change    ...    2.9065e-06  Tolerance :   1.0000e-07
  Last RMS-Density change    ...    2.3217e-08  Tolerance :   5.0000e-09
  Last DIIS Error            ...    8.2038e-07  Tolerance :   5.0000e-07

             **** THE GBW FILE WAS UPDATED (culcl2.gbw) ****
             **** DENSITY FILE WAS UPDATED (culcl2.scfp) ****
             **** ENERGY FILE WAS UPDATED (culcl2.en.tmp) ****
----------------------
UHF SPIN CONTAMINATION
----------------------

Warning: in a DFT calculation there is little theoretical justification to 
         calculate <S**2> as in Hartree-Fock theory. We will do it anyways
         but you should keep in mind that the values have only limited relevance

Expectation value of <S**2>     :     0.753037
Ideal value S*(S+1) for S=0.5   :     0.750000
Deviation                       :     0.003037

             **** THE GBW FILE WAS UPDATED (culcl2.gbw) ****
             **** DENSITY FILE WAS UPDATED (culcl2.scfp) ****
----------------
ORBITAL ENERGIES
----------------
                 SPIN UP ORBITALS
  NO   OCC          E(Eh)            E(eV) 
   0   1.0000    -323.309621     -8797.7020 
   1   1.0000    -101.641833     -2765.8149 
   2   1.0000    -101.636762     -2765.6769 
   3   1.0000     -38.912534     -1058.8639 
   4   1.0000     -34.095681      -927.7906 
   5   1.0000     -34.092744      -927.7107 
   6   1.0000     -34.089646      -927.6264 
   7   1.0000     -19.218931      -522.9737 
   8   1.0000     -14.437681      -392.8693 
   9   1.0000     -14.436648      -392.8412 
  10   1.0000     -10.328893      -281.0635 
  11   1.0000     -10.276480      -279.6373 
  12   1.0000     -10.275772      -279.6180 
  13   1.0000     -10.274099      -279.5724 
  14   1.0000     -10.269995      -279.4608 
  15   1.0000     -10.267431      -279.3910 
  16   1.0000     -10.265600      -279.3412 
  17   1.0000     -10.263512      -279.2844 
  18   1.0000     -10.259578      -279.1773 
  19   1.0000     -10.251310      -278.9523 
  20   1.0000     -10.245502      -278.7943 
  21   1.0000     -10.241796      -278.6934 
  22   1.0000     -10.241033      -278.6727 
  23   1.0000     -10.240921      -278.6696 
  24   1.0000     -10.240489      -278.6579 
  25   1.0000     -10.239400      -278.6282 
  26   1.0000     -10.238717      -278.6097 
  27   1.0000     -10.237634      -278.5802 
  28   1.0000     -10.237230      -278.5692 
  29   1.0000     -10.236001      -278.5358 
  30   1.0000     -10.234831      -278.5039 
  31   1.0000     -10.230282      -278.3801 
  32   1.0000     -10.229244      -278.3519 
  33   1.0000      -9.490182      -258.2410 
  34   1.0000      -9.485028      -258.1007 
  35   1.0000      -7.233222      -196.8260 
  36   1.0000      -7.228624      -196.7008 
  37   1.0000      -7.223281      -196.5555 
  38   1.0000      -7.221859      -196.5168 
  39   1.0000      -7.217959      -196.4106 
  40   1.0000      -7.216432      -196.3691 
  41   1.0000      -4.310613      -117.2977 
  42   1.0000      -2.794163       -76.0331 
  43   1.0000      -2.792367       -75.9842 
  44   1.0000      -2.784531       -75.7709 
  45   1.0000      -1.080874       -29.4121 
  46   1.0000      -1.003358       -27.3028 
  47   1.0000      -0.980503       -26.6808 
  48   1.0000      -0.885519       -24.0962 
  49   1.0000      -0.876740       -23.8573 
  50   1.0000      -0.851480       -23.1700 
  51   1.0000      -0.847037       -23.0491 
  52   1.0000      -0.818932       -22.2843 
  53   1.0000      -0.791565       -21.5396 
  54   1.0000      -0.784909       -21.3585 
  55   1.0000      -0.765969       -20.8431 
  56   1.0000      -0.761621       -20.7248 
  57   1.0000      -0.755749       -20.5650 
  58   1.0000      -0.735883       -20.0244 
  59   1.0000      -0.719552       -19.5800 
  60   1.0000      -0.715375       -19.4664 
  61   1.0000      -0.711529       -19.3617 
  62   1.0000      -0.684312       -18.6211 
  63   1.0000      -0.647183       -17.6108 
  64   1.0000      -0.632926       -17.2228 
  65   1.0000      -0.624587       -16.9959 
  66   1.0000      -0.619427       -16.8555 
  67   1.0000      -0.611910       -16.6509 
  68   1.0000      -0.595833       -16.2134 
  69   1.0000      -0.590460       -16.0672 
  70   1.0000      -0.556183       -15.1345 
  71   1.0000      -0.535747       -14.5784 
  72   1.0000      -0.529608       -14.4114 
  73   1.0000      -0.525313       -14.2945 
  74   1.0000      -0.518718       -14.1150 
  75   1.0000      -0.514237       -13.9931 
  76   1.0000      -0.510754       -13.8983 
  77   1.0000      -0.493362       -13.4251 
  78   1.0000      -0.481393       -13.0994 
  79   1.0000      -0.476204       -12.9582 
  80   1.0000      -0.469467       -12.7749 
  81   1.0000      -0.468170       -12.7396 
  82   1.0000      -0.461605       -12.5609 
  83   1.0000      -0.456370       -12.4185 
  84   1.0000      -0.452068       -12.3014 
  85   1.0000      -0.445190       -12.1142 
  86   1.0000      -0.435957       -11.8630 
  87   1.0000      -0.433222       -11.7886 
  88   1.0000      -0.431251       -11.7349 
  89   1.0000      -0.424418       -11.5490 
  90   1.0000      -0.416019       -11.3205 
  91   1.0000      -0.415116       -11.2959 
  92   1.0000      -0.407444       -11.0871 
  93   1.0000      -0.402662       -10.9570 
  94   1.0000      -0.400410       -10.8957 
  95   1.0000      -0.399631       -10.8745 
  96   1.0000      -0.398000       -10.8301 
  97   1.0000      -0.392442       -10.6789 
  98   1.0000      -0.383929       -10.4472 
  99   1.0000      -0.382946       -10.4205 
 100   1.0000      -0.374180       -10.1819 
 101   1.0000      -0.371378       -10.1057 
 102   1.0000      -0.363507        -9.8915 
 103   1.0000      -0.359984        -9.7957 
 104   1.0000      -0.355864        -9.6835 
 105   1.0000      -0.350466        -9.5367 
 106   1.0000      -0.349763        -9.5175 
 107   1.0000      -0.347949        -9.4682 
 108   1.0000      -0.343822        -9.3559 
 109   1.0000      -0.334198        -9.0940 
 110   1.0000      -0.327872        -8.9219 
 111   1.0000      -0.321094        -8.7374 
 112   1.0000      -0.315459        -8.5841 
 113   1.0000      -0.309324        -8.4171 
 114   1.0000      -0.288516        -7.8509 
 115   1.0000      -0.271139        -7.3781 
 116   1.0000      -0.268435        -7.3045 
 117   1.0000      -0.263830        -7.1792 
 118   1.0000      -0.256899        -6.9906 
 119   1.0000      -0.252206        -6.8629 
 120   1.0000      -0.249772        -6.7966 
 121   1.0000      -0.247696        -6.7401 
 122   1.0000      -0.241754        -6.5785 
 123   1.0000      -0.239501        -6.5171 
 124   1.0000      -0.228035        -6.2052 
 125   1.0000      -0.199484        -5.4282 
 126   0.0000      -0.027477        -0.7477 
 127   0.0000      -0.019339        -0.5262 
 128   0.0000      -0.013284        -0.3615 
 129   0.0000      -0.010217        -0.2780 
 130   0.0000      -0.006829        -0.1858 
 131   0.0000       0.029018         0.7896 
 132   0.0000       0.063426         1.7259 
 133   0.0000       0.075265         2.0481 
 134   0.0000       0.079029         2.1505 
 135   0.0000       0.082242         2.2379 
 136   0.0000       0.088496         2.4081 
 137   0.0000       0.097599         2.6558 
 138   0.0000       0.102295         2.7836 
 139   0.0000       0.109297         2.9741 
 140   0.0000       0.116498         3.1701 
 141   0.0000       0.119735         3.2581 
 142   0.0000       0.124070         3.3761 
 143   0.0000       0.126850         3.4518 
[...]
      dyz     :    -0.000017
      dx2y2   :    -0.000003
      dxy     :    -0.000007
 17 C s       :    -0.000040  s :    -0.000040
      pz      :    -0.000034  p :    -0.000818
      px      :    -0.000075
      py      :    -0.000710
      dz2     :     0.000004  d :     0.000041
      dxz     :     0.000002
      dyz     :     0.000022
      dx2y2   :     0.000004
      dxy     :     0.000009
 18 C s       :     0.000028  s :     0.000028
      pz      :     0.000039  p :     0.001111
      px      :     0.000131
      py      :     0.000942
      dz2     :    -0.000008  d :    -0.000043
      dxz     :    -0.000004
      dyz     :    -0.000003
      dx2y2   :    -0.000012
      dxy     :    -0.000016
 19 C s       :    -0.000155  s :    -0.000155
      pz      :    -0.000116  p :    -0.001242
      px      :    -0.000292
      py      :    -0.000835
      dz2     :     0.000005  d :     0.000041
      dxz     :    -0.000000
      dyz     :     0.000016
      dx2y2   :    -0.000001
      dxy     :     0.000021
 20 C s       :     0.000136  s :     0.000136
      pz      :     0.000381  p :     0.001204
      px      :     0.000358
      py      :     0.000465
      dz2     :    -0.000026  d :    -0.000084
      dxz     :    -0.000011
      dyz     :    -0.000011
      dx2y2   :    -0.000016
      dxy     :    -0.000019
 21 C s       :    -0.000155  s :    -0.000155
      pz      :    -0.000305  p :    -0.001237
      px      :    -0.000284
      py      :    -0.000647
      dz2     :     0.000008  d :     0.000040
      dxz     :    -0.000004
      dyz     :     0.000011
      dx2y2   :     0.000005
      dxy     :     0.000021
 22 C s       :     0.000027  s :     0.000027
      pz      :     0.000338  p :     0.001097
      px      :     0.000110
      py      :     0.000649
      dz2     :    -0.000006  d :    -0.000043
      dxz     :    -0.000008
      dyz     :    -0.000004
      dx2y2   :    -0.000013
      dxy     :    -0.000012
 23 C s       :    -0.000040  s :    -0.000040
      pz      :    -0.000218  p :    -0.000810
      px      :    -0.000066
      py      :    -0.000526
      dz2     :     0.000018  d :     0.000040
      dxz     :     0.000003
      dyz     :     0.000007
      dx2y2   :     0.000002
      dxy     :     0.000009
 24 C s       :     0.000047  s :     0.000047
      pz      :     0.000315  p :     0.001212
      px      :     0.000084
      py      :     0.000813
      dz2     :    -0.000011  d :    -0.000030
      dxz     :    -0.000005
      dyz     :    -0.000005
      dx2y2   :    -0.000005
      dxy     :    -0.000004
 25 C s       :    -0.000035  s :    -0.000035
      pz      :    -0.000232  p :    -0.000862
      px      :    -0.000058
      py      :    -0.000571
      dz2     :     0.000001  d :     0.000044
      dxz     :     0.000010
      dyz     :     0.000003
      dx2y2   :     0.000011
      dxy     :     0.000020
 26 Cus       :    -0.006356  s :    -0.006356
      pz      :    -0.005573  p :     0.015595
      px      :     0.026198
      py      :    -0.005030
      dz2     :     0.086573  d :     0.613081
      dxz     :     0.073951
      dyz     :     0.421609
      dx2y2   :     0.021754
      dxy     :     0.009194
      f0      :    -0.000004  f :     0.000019
      f+1     :     0.000007
      f-1     :    -0.000003
      f+2     :     0.000003
      f-2     :     0.000001
      f+3     :     0.000009
      f-3     :     0.000006
 27 H s       :     0.004249  s :     0.004249
      pz      :    -0.000049  p :    -0.000154
      px      :    -0.000037
      py      :    -0.000068
 28 H s       :     0.001023  s :     0.001023
      pz      :    -0.000051  p :    -0.000101
      px      :    -0.000038
      py      :    -0.000011
 29 H s       :     0.001929  s :     0.001929
      pz      :    -0.000047  p :    -0.000132
      px      :    -0.000040
      py      :    -0.000046
 30 H s       :     0.008356  s :     0.008356
      pz      :    -0.000017  p :    -0.000151
      px      :    -0.000078
      py      :    -0.000056
 31 H s       :     0.008400  s :     0.008400
      pz      :    -0.000097  p :    -0.000152
      px      :    -0.000069
      py      :     0.000014
 32 H s       :     0.001937  s :     0.001937
      pz      :    -0.000060  p :    -0.000132
      px      :    -0.000037
      py      :    -0.000036
 33 H s       :     0.004284  s :     0.004284
      pz      :    -0.000098  p :    -0.000155
      px      :    -0.000036
      py      :    -0.000022
 34 H s       :     0.001019  s :     0.001019
      pz      :    -0.000037  p :    -0.000102
      px      :    -0.000038
      py      :    -0.000027
 35 H s       :     0.000027  s :     0.000027
      pz      :    -0.000004  p :     0.000002
      px      :    -0.000001
      py      :     0.000006
 36 H s       :    -0.000011  s :    -0.000011
      pz      :     0.000001  p :     0.000004
      px      :    -0.000001
      py      :     0.000003
 37 H s       :    -0.000019  s :    -0.000019
      pz      :     0.000000  p :    -0.000004
      px      :    -0.000001
      py      :    -0.000003
 38 H s       :    -0.000011  s :    -0.000011
      pz      :     0.000000  p :     0.000004
      px      :    -0.000000
      py      :     0.000004
 39 H s       :    -0.000019  s :    -0.000019
      pz      :    -0.000001  p :    -0.000004
      px      :    -0.000000
      py      :    -0.000003
 40 H s       :     0.000027  s :     0.000027
      pz      :     0.000001  p :     0.000002
      px      :    -0.000001
      py      :     0.000002
 41 H s       :     0.001308  s :     0.001308
      pz      :    -0.000003  p :    -0.000075
      px      :    -0.000016
      py      :    -0.000057
 42 H s       :     0.005604  s :     0.005604
      pz      :    -0.000082  p :    -0.000050
      px      :    -0.000002
      py      :     0.000034
 43 H s       :     0.005562  s :     0.005562
      pz      :    -0.000012  p :    -0.000049
      px      :    -0.000010
      py      :    -0.000027
 44 H s       :     0.001299  s :     0.001299
      pz      :    -0.000036  p :    -0.000075
      px      :    -0.000014
      py      :    -0.000025
 45 H s       :     0.000102  s :     0.000102
      pz      :     0.000013  p :    -0.000002
      px      :     0.000004
      py      :    -0.000019
 46 H s       :    -0.000033  s :    -0.000033
      pz      :     0.000001  p :     0.000030
      px      :     0.000006
      py      :     0.000023
 47 H s       :     0.000021  s :     0.000021
      pz      :    -0.000001  p :    -0.000022
      px      :    -0.000003
      py      :    -0.000018
 48 H s       :    -0.000041  s :    -0.000041
      pz      :     0.000004  p :     0.000029
      px      :     0.000005
      py      :     0.000020
 49 H s       :    -0.000157  s :    -0.000157
      pz      :    -0.000005  p :    -0.000125
      px      :    -0.000111
      py      :    -0.000009
 50 H s       :    -0.000158  s :    -0.000158
      pz      :    -0.000009  p :    -0.000126
      px      :    -0.000111
      py      :    -0.000007
 51 H s       :    -0.000041  s :    -0.000041
      pz      :     0.000008  p :     0.000028
      px      :     0.000005
      py      :     0.000016
 52 H s       :     0.000021  s :     0.000021
      pz      :    -0.000006  p :    -0.000022
      px      :    -0.000003
      py      :    -0.000013
 53 H s       :    -0.000032  s :    -0.000032
      pz      :     0.000007  p :     0.000030
      px      :     0.000006
      py      :     0.000017
 54 H s       :     0.000102  s :     0.000102
      pz      :     0.000010  p :    -0.000001
      px      :     0.000003
      py      :    -0.000015
 55 Cls       :     0.000463  s :     0.000463
      pz      :     0.005903  p :     0.060885
      px      :     0.041095
      py      :     0.013887
      dz2     :    -0.000061  d :    -0.000016
      dxz     :     0.000034
      dyz     :    -0.000051
      dx2y2   :    -0.000010
      dxy     :     0.000073
 56 Cls       :     0.000465  s :     0.000465
      pz      :     0.000940  p :     0.060764
      px      :     0.039060
      py      :     0.020763
      dz2     :    -0.000025  d :    -0.000018
      dxz     :     0.000000
      dyz     :    -0.000067
      dx2y2   :    -0.000034
      dxy     :     0.000107


                      *****************************
                      * MAYER POPULATION ANALYSIS *
                      *****************************

  NA   - Mulliken gross atomic population
  ZA   - Total nuclear charge
  QA   - Mulliken gross atomic charge
  VA   - Mayer's total valence
  BVA  - Mayer's bonded valence
  FA   - Mayer's free valence

  ATOM       NA         ZA         QA         VA         BVA        FA
  0 C      6.4278     6.0000    -0.4278     3.9520     3.9520     0.0000
  1 C      5.7766     6.0000     0.2234     3.7451     3.7451     0.0000
  2 N      7.5332     7.0000    -0.5332     3.2114     3.1991     0.0123
  3 C      5.7986     6.0000     0.2014     3.7273     3.7273     0.0000
  4 C      6.4266     6.0000    -0.4266     3.9517     3.9517     0.0000
  5 C      5.7977     6.0000     0.2023     3.7269     3.7269     0.0000
  6 N      7.5332     7.0000    -0.5332     3.2124     3.1999     0.0125
  7 C      5.7765     6.0000     0.2235     3.7450     3.7450     0.0000
  8 C      5.7940     6.0000     0.2060     3.9368     3.9368     0.0000
  9 C      5.9515     6.0000     0.0485     3.9533     3.9533     0.0000
 10 C      5.9513     6.0000     0.0487     3.9531     3.9531     0.0000
 11 O      8.2303     8.0000    -0.2303     2.2871     2.2871     0.0000
 12 C      5.7949     6.0000     0.2051     3.7791     3.7790     0.0000
 13 C      5.7958     6.0000     0.2042     3.7803     3.7803     0.0000
 14 C      6.1527     6.0000    -0.1527     3.9178     3.9178     0.0000
 15 C      6.0298     6.0000    -0.0298     3.8559     3.8559     0.0000
 16 C      6.0410     6.0000    -0.0410     3.8431     3.8431     0.0000
 17 C      6.0346     6.0000    -0.0346     3.8145     3.8145     0.0000
 18 C      6.0342     6.0000    -0.0342     3.8536     3.8536     0.0000
 19 C      5.9952     6.0000     0.0048     3.8521     3.8521     0.0000
 20 C      6.1509     6.0000    -0.1509     3.9161     3.9161     0.0000
 21 C      5.9957     6.0000     0.0043     3.8519     3.8519     0.0000
 22 C      6.0349     6.0000    -0.0349     3.8537     3.8537     0.0000
 23 C      6.0343     6.0000    -0.0343     3.8143     3.8143     0.0000
 24 C      6.0411     6.0000    -0.0411     3.8439     3.8439     0.0000
 25 C      6.0295     6.0000    -0.0295     3.8564     3.8564     0.0000
 26 Cu    28.5594    29.0000     0.4406     3.0332     2.6173     0.4159
 27 H      0.9270     1.0000     0.0730     0.9983     0.9983     0.0000
 28 H      0.9318     1.0000     0.0682     1.0359     1.0359     0.0000
 29 H      0.9025     1.0000     0.0975     1.0081     1.0081     0.0000
 30 H      0.9245     1.0000     0.0755     1.0008     1.0007     0.0001
 31 H      0.9239     1.0000     0.0761     1.0007     1.0006     0.0001
 32 H      0.9027     1.0000     0.0973     1.0078     1.0078     0.0000
 33 H      0.9273     1.0000     0.0727     0.9984     0.9984     0.0000
 34 H      0.9322     1.0000     0.0678     1.0369     1.0369     0.0000
 35 H      0.9385     1.0000     0.0615     0.9975     0.9975     0.0000
 36 H      0.9371     1.0000     0.0629     0.9899     0.9899     0.0000
 37 H      0.9388     1.0000     0.0612     0.9974     0.9974     0.0000
 38 H      0.9371     1.0000     0.0629     0.9899     0.9899     0.0000
 39 H      0.9387     1.0000     0.0613     0.9974     0.9974     0.0000
 40 H      0.9385     1.0000     0.0615     0.9976     0.9976     0.0000
 41 H      0.9397     1.0000     0.0603     1.0469     1.0469     0.0000
 42 H      0.9284     1.0000     0.0716     0.9951     0.9950     0.0001
 43 H      0.9289     1.0000     0.0711     0.9953     0.9953     0.0001
 44 H      0.9396     1.0000     0.0604     1.0466     1.0466     0.0000
 45 H      0.9600     1.0000     0.0400     0.9915     0.9915     0.0000
 46 H      0.9545     1.0000     0.0455     0.9808     0.9808     0.0000
 47 H      0.9528     1.0000     0.0472     0.9805     0.9805     0.0000
 48 H      0.9586     1.0000     0.0414     0.9820     0.9820     0.0000
 49 H      0.9935     1.0000     0.0065     1.0629     1.0629     0.0000
 50 H      0.9944     1.0000     0.0056     1.0642     1.0642     0.0000
 51 H      0.9586     1.0000     0.0414     0.9820     0.9820     0.0000
 52 H      0.9528     1.0000     0.0472     0.9805     0.9805     0.0000
 53 H      0.9545     1.0000     0.0455     0.9808     0.9808     0.0000
 54 H      0.9606     1.0000     0.0394     0.9916     0.9916     0.0000
 55 Cl    17.4503    17.0000    -0.4503     0.9752     0.9708     0.0044
 56 Cl    17.4506    17.0000    -0.4506     0.9749     0.9706     0.0044

  Mayer bond orders larger than 0.100000
B(  0-C ,  1-C ) :   0.9790 B(  0-C ,  5-C ) :   0.9873 B(  0-C ,  8-C ) :   0.8829 
B(  0-C , 10-C ) :   1.0748 B(  1-C ,  2-N ) :   0.8729 B(  1-C , 27-H ) :   0.9287 
B(  1-C , 28-H ) :   0.9311 B(  2-N ,  3-C ) :   0.8606 B(  2-N , 13-C ) :   0.8739 
B(  2-N , 26-Cu) :   0.5121 B(  3-C ,  4-C ) :   0.9875 B(  3-C , 29-H ) :   0.9273 
B(  3-C , 30-H ) :   0.9245 B(  4-C ,  7-C ) :   0.9792 B(  4-C ,  8-C ) :   0.8829 
B(  4-C ,  9-C ) :   1.0747 B(  5-C ,  6-N ) :   0.8606 B(  5-C , 31-H ) :   0.9244 
B(  5-C , 32-H ) :   0.9274 B(  6-N ,  7-C ) :   0.8731 B(  6-N , 12-C ) :   0.8735 
B(  6-N , 26-Cu) :   0.5128 B(  7-C , 33-H ) :   0.9285 B(  7-C , 34-H ) :   0.9308 
B(  8-C , 11-O ) :   2.2089 B(  9-C , 35-H ) :   0.9544 B(  9-C , 36-H ) :   0.9577 
B(  9-C , 37-H ) :   0.9543 B( 10-C , 38-H ) :   0.9577 B( 10-C , 39-H ) :   0.9543 
B( 10-C , 40-H ) :   0.9543 B( 12-C , 14-C ) :   1.0175 B( 12-C , 41-H ) :   0.9256 
B( 12-C , 42-H ) :   0.9348 B( 13-C , 20-C ) :   1.0173 B( 13-C , 43-H ) :   0.9349 
B( 13-C , 44-H ) :   0.9260 B( 14-C , 15-C ) :   1.3733 B( 14-C , 19-C ) :   1.3997 
B( 15-C , 16-C ) :   1.3942 B( 15-C , 45-H ) :   0.9883 B( 16-C , 17-C ) :   1.3760 
B( 16-C , 46-H ) :   0.9882 B( 17-C , 18-C ) :   1.3861 B( 17-C , 47-H ) :   0.9894 
B( 18-C , 19-C ) :   1.3839 B( 18-C , 48-H ) :   0.9882 B( 19-C , 49-H ) :   0.9583 
B( 20-C , 21-C ) :   1.3995 B( 20-C , 25-C ) :   1.3731 B( 21-C , 22-C ) :   1.3843 
B( 21-C , 50-H ) :   0.9576 B( 22-C , 23-C ) :   1.3858 B( 22-C , 51-H ) :   0.9883 
B( 23-C , 24-C ) :   1.3761 B( 23-C , 52-H ) :   0.9894 B( 24-C , 25-C ) :   1.3947 
B( 24-C , 53-H ) :   0.9882 B( 25-C , 54-H ) :   0.9881 B( 26-Cu, 55-Cl) :   0.6808 
B( 26-Cu, 56-Cl) :   0.6802 

-------
TIMINGS
-------

Total SCF time: 0 days 0 hours 10 min 13 sec 

Total time                  ....     613.081 sec
Sum of individual times     ....     610.169 sec  ( 99.5%)

Fock matrix formation       ....     580.186 sec  ( 94.6%)
  XC integration            ....      63.877 sec  ( 11.0% of F)
    Basis function eval.    ....       9.831 sec  ( 15.4% of XC)
    Density eval.           ....      39.195 sec  ( 61.4% of XC)
    XC-Functional eval.     ....       1.223 sec  (  1.9% of XC)
    XC-Potential eval.      ....      10.815 sec  ( 16.9% of XC)
Diagonalization             ....       9.440 sec  (  1.5%)
Density matrix formation    ....       0.241 sec  (  0.0%)
Population analysis         ....       0.983 sec  (  0.2%)
Initial guess               ....       0.683 sec  (  0.1%)
Orbital Transformation      ....       0.000 sec  (  0.0%)
Orbital Orthonormalization  ....       0.634 sec  (  0.1%)
DIIS solution               ....       4.267 sec  (  0.7%)
Grid generation             ....      14.369 sec  (  2.3%)


-------------------------------------------------------------------------------
                          DFT DISPERSION CORRECTION                            
                                                                               
                              DFTD3 V3.1  Rev 1                                
                          USING Becke-Johnson damping                          
-------------------------------------------------------------------------------
The PBE0 functional is recognized
Active option DFTDOPT                   ...         4   

molecular C6(AA) [au] = 39999.339187 


            DFT-D V3
 parameters
 s6 scaling factor         :     1.0000 
 a1 scaling factor         :     0.4145 
 s8 scaling factor         :     1.2177 
 a2 scaling factor         :     4.8593 
 ad hoc parameters k1-k3   :    16.0000     1.3333    -4.0000 

 Edisp/kcal,au: -56.923535152856  -0.090713417779 
 E6   /kcal   : -35.183997128 
 E8   /kcal   : -21.739538025 
 % E8         :  38.190772879 

-------------------------   ----------------
Dispersion correction           -0.090713418
-------------------------   ----------------


-------------------------   --------------------
FINAL SINGLE POINT ENERGY     -3636.113274173566
-------------------------   --------------------

                                *** OPTIMIZATION RUN DONE ***

                            ***************************************
                            *     ORCA property calculations      *
                            ***************************************

                                    ---------------------
                                    Active property flags
                                    ---------------------
   (+) Dipole Moment


------------------------------------------------------------------------------
                       ORCA ELECTRIC PROPERTIES CALCULATION
------------------------------------------------------------------------------

Dipole Moment Calculation                       ... on
Quadrupole Moment Calculation                   ... off
Polarizability Calculation                      ... off
GBWName                                         ... culcl2.gbw
Electron density file                           ... culcl2.scfp
The origin for moment calculation is the CENTER OF MASS  = (-0.924313,  0.536404 -0.218148)

-------------
DIPOLE MOMENT
-------------
                                X             Y             Z
Electronic contribution:     -0.90454       4.86075     -21.30822
Nuclear contribution   :      1.04829      -5.73747      25.14221
                        -----------------------------------------
Total Dipole Moment    :      0.14376      -0.87672       3.83399
                        -----------------------------------------
Magnitude (a.u.)       :      3.93557
Magnitude (Debye)      :     10.00344



--------------------
Rotational spectrum 
--------------------
 
Rotational constants in cm-1:     0.006646     0.004414     0.003344 
Rotational constants in MHz :   199.253123   132.342160   100.239833 

 Dipole components along the rotational axes: 
x,y,z [a.u.] :    -0.014898    -3.935533    -0.010355 
x,y,z [Debye]:    -0.037868   -10.003329    -0.026321 

 

Timings for individual modules:

Sum of individual times         ...    62624.966 sec (=1043.749 min)
GTO integral calculation        ...       36.815 sec (=   0.614 min)   0.1 %
SCF iterations                  ...    50161.613 sec (= 836.027 min)  80.1 %
SCF Gradient evaluation         ...    12379.371 sec (= 206.323 min)  19.8 %
Geometry relaxation             ...       47.167 sec (=   0.786 min)   0.1 %
                             ****ORCA TERMINATED NORMALLY****
TOTAL RUN TIME: 0 days 17 hours 24 minutes 30 seconds 588 msec
