
                                 *****************
                                 * O   R   C   A *
                                 *****************

           --- An Ab Initio, DFT and Semiempirical electronic structure package ---

                  #######################################################
                  #                        -***-                        #
                  #          Department of theory and spectroscopy      #
                  #               Directorship: Frank Neese             #
                  #        Max Planck Institute fuer Kohlenforschung    #
                  #                Kaiser Wilhelm Platz 1               #
                  #                 D-45470 Muelheim/Ruhr               #
                  #                      Germany                        #
                  #                                                     #
                  #                  All rights reserved                #
                  #                        -***-                        #
                  #######################################################


                         Program Version 4.2.1 -  RELEASE  -


 With contributions from (in alphabetic order):
   Daniel Aravena         : Magnetic Suceptibility
   Michael Atanasov       : Ab Initio Ligand Field Theory (pilot matlab implementation)
   Alexander A. Auer      : GIAO ZORA, VPT2
   Ute Becker             : Parallelization
   Giovanni Bistoni       : ED, misc. LED, open-shell LED, HFLD
   Martin Brehm           : Molecular dynamics
   Dmytro Bykov           : SCF Hessian
   Vijay G. Chilkuri      : MRCI spin determinant printing, contributions to CSF-ICE
   Dipayan Datta          : RHF DLPNO-CCSD density
   Achintya Kumar Dutta   : EOM-CC, STEOM-CC
   Dmitry Ganyushin       : Spin-Orbit,Spin-Spin,Magnetic field MRCI
   Miquel Garcia          : C-PCM Hessian, Gaussian charge scheme
   Yang Guo               : DLPNO-NEVPT2, CIM, IAO-localization
   Andreas Hansen         : Spin unrestricted coupled pair/coupled cluster methods
   Benjamin Helmich-Paris : CASSCF linear response (MC-RPA)
   Lee Huntington         : MR-EOM, pCC
   Robert Izsak           : Overlap fitted RIJCOSX, COSX-SCS-MP3, EOM
   Christian Kollmar      : KDIIS, OOCD, Brueckner-CCSD(T), CCSD density
   Simone Kossmann        : Meta GGA functionals, TD-DFT gradient, OOMP2, MP2 Hessian
   Martin Krupicka        : AUTO-CI
   Lucas Lang             : DCDCAS
   Dagmar Lenk            : GEPOL surface, SMD
   Dimitrios Liakos       : Extrapolation schemes; Compound Job, initial MDCI parallelization
   Dimitrios Manganas     : Further ROCIS development; embedding schemes
   Dimitrios Pantazis     : SARC Basis sets
   Taras Petrenko         : DFT Hessian,TD-DFT gradient, ASA, ECA, R-Raman, ABS, FL, XAS/XES, NRVS
   Peter Pinski           : DLPNO-MP2, DLPNO-MP2 Gradient
   Christoph Reimann      : Effective Core Potentials
   Marius Retegan         : Local ZFS, SOC
   Christoph Riplinger    : Optimizer, TS searches, QM/MM, DLPNO-CCSD(T), (RO)-DLPNO pert. Triples
   Tobias Risthaus        : Range-separated hybrids, TD-DFT gradient, RPA, STAB
   Michael Roemelt        : Original ROCIS implementation
   Masaaki Saitow         : Open-shell DLPNO-CCSD energy and density
   Barbara Sandhoefer     : DKH picture change effects
   Avijit Sen             : IP-ROCIS
   Kantharuban Sivalingam : CASSCF convergence, NEVPT2, FIC-MRCI
   Bernardo de Souza      : ESD, SOC TD-DFT
   Georgi Stoychev        : AutoAux, RI-MP2 NMR
   Willem Van den Heuvel  : Paramagnetic NMR
   Boris Wezisla          : Elementary symmetry handling
   Frank Wennmohs         : Technical directorship


 We gratefully acknowledge several colleagues who have allowed us to
 interface, adapt or use parts of their codes:
   Stefan Grimme, W. Hujo, H. Kruse,             : VdW corrections, initial TS optimization,
                  C. Bannwarth                     DFT functionals, gCP, sTDA/sTD-DF
   Ed Valeev, F. Pavosevic, A. Kumar             : LibInt (2-el integral package), F12 methods
   Garnet Chan, S. Sharma, J. Yang, R. Olivares  : DMRG
   Ulf Ekstrom                                   : XCFun DFT Library
   Mihaly Kallay                                 : mrcc  (arbitrary order and MRCC methods)
   Andreas Klamt, Michael Diedenhofen            : otool_cosmo (COSMO solvation model)
   Jiri Pittner, Ondrej Demel                    : Mk-CCSD
   Frank Weinhold                                : gennbo (NPA and NBO analysis)
   Christopher J. Cramer and Donald G. Truhlar   : smd solvation model
   Lars Goerigk                                  : TD-DFT with DH, B97 family of functionals
   V. Asgeirsson, H. Jonsson                     : NEB implementation
   FAccTs GmbH                                   : IRC, NEB, NEB-TS, Multilevel, MM, QM/MM, CI optimization
   S Lehtola, MJT Oliveira, MAL Marques          : LibXC Library


 Your calculation uses the libint2 library for the computation of 2-el integrals
 For citations please refer to: http://libint.valeyev.net

 Your ORCA version has been built with support for libXC version: 4.2.3
 For citations please refer to: https://tddft.org/programs/libxc/

 This ORCA versions uses:
   CBLAS   interface :  Fast vector & matrix operations
   LAPACKE interface :  Fast linear algebra routines


Your calculation utilizes the atom-pairwise dispersion correction
with the Becke-Johnson damping scheme (D3BJ)
Cite in your paper:
S.Grimme, S.Ehrlich, L.Goerigk, J Comput Chem, (2011), 32, 1456???1465 
S.Grimme, J.Antony, S.Ehrlich and H.Krieg, J.Chem.Phys., 132, (2010), 154104 
   

----- Orbital basis set information -----
Your calculation utilizes the basis: def2-SVP
   F. Weigend and R. Ahlrichs, Phys. Chem. Chem. Phys. 7, 3297 (2005).

================================================================================
                                        WARNINGS
                       Please study these warnings very carefully!
================================================================================


WARNING: your system is open-shell and RHF/RKS was chosen
  ===> : WILL SWITCH to UHF/UKS


WARNING: Geometry Optimization
  ===> : Switching off AutoStart
         For restart on a previous wavefunction, please use MOREAD

INFO   : the flag for use of LIBINT has been found!

================================================================================
                                       INPUT FILE
================================================================================
NAME = CuL.inp
|  1> ! PBE0 Grid4 D3BJ def2-svp PAL2
|  2> ! TightOpt
|  3> ! CPCM(water)
|  4> 
|  5> * xyz 2 2
|  6> 6       -1.348964000     -1.216547000      1.767921000
|  7> 6       -0.793241000     -2.018350000      0.585841000
|  8> 7        0.435766000     -1.439387000      0.022000000
|  9> 6        1.465256000     -1.219853000      1.056662000
| 10> 6        0.980369000     -0.412148000      2.267102000
| 11> 6       -1.710147000      0.221504000      1.374759000
| 12> 7       -0.565227000      1.033147000      0.923059000
| 13> 6        0.551349000      1.007921000      1.879576000
| 14> 6       -0.247920000     -1.123960000      2.813571000
| 15> 6        2.096399000     -0.336247000      3.294351000
| 16> 6       -2.588511000     -1.909975000      2.307409000
| 17> 8       -0.338237000     -1.557559000      3.933844000
| 18> 6       -0.988781000      2.416831000      0.595950000
| 19> 6        0.970471000     -2.265517000     -1.089070000
| 20> 6       -1.608330000      2.367004000     -0.768236000
| 21> 6       -2.987064000      2.311503000     -0.963259000
| 22> 6       -3.502912000      2.094204000     -2.242025000
| 23> 6       -2.650362000      1.920540000     -3.335310000
| 24> 6       -1.273613000      1.990281000     -3.157007000
| 25> 6       -0.739707000      2.208589000     -1.874158000
| 26> 6        1.787717000     -1.353378000     -1.952919000
| 27> 6        1.094758000     -0.447037000     -2.785182000
| 28> 6        1.804380000      0.536564000     -3.496225000
| 29> 6        3.186418000      0.616828000     -3.376717000
| 30> 6        3.870144000     -0.291862000     -2.563222000
| 31> 6        3.176367000     -1.269542000     -1.850118000
| 32> 29       0.038969000      0.320425000     -0.890416000
| 33> 1       -0.570990000     -3.047961000      0.917349000
| 34> 1       -1.547698000     -2.090922000     -0.212416000
| 35> 1        2.331266000     -0.717685000      0.599838000
| 36> 1        1.809325000     -2.208903000      1.405821000
| 37> 1       -2.160706000      0.724312000      2.248629000
| 38> 1       -2.474265000      0.209188000      0.582710000
| 39> 1        0.243970000      1.553859000      2.788773000
| 40> 1        1.400116000      1.553736000      1.439631000
| 41> 1        2.399526000     -1.344416000      3.608722000
| 42> 1        2.971820000      0.178865000      2.873744000
| 43> 1        1.759512000      0.210349000      4.185732000
| 44> 1       -3.375197000     -1.944277000      1.540076000
| 45> 1       -2.350443000     -2.937867000      2.613763000
| 46> 1       -2.976317000     -1.375645000      3.185353000
| 47> 1       -0.094188000      3.054666000      0.596394000
| 48> 1       -1.680809000      2.787816000      1.367151000
| 49> 1        1.551787000     -3.107804000     -0.683845000
| 50> 1        0.117088000     -2.671640000     -1.649947000
| 51> 1       -3.661799000      2.433196000     -0.112972000
| 52> 1       -4.584909000      2.051965000     -2.385403000
| 53> 1       -3.063807000      1.750656000     -4.331162000
| 54> 1       -0.612966000      1.910305000     -4.021721000
| 55> 1        0.327224000      2.462274000     -1.765608000
| 56> 1        0.033342000     -0.627663000     -3.018475000
| 57> 1        1.280262000      1.214036000     -4.171489000
| 58> 1        3.738380000      1.377621000     -3.931891000
| 59> 1        4.957629000     -0.234073000     -2.479323000
| 60> 1        3.714501000     -1.968964000     -1.206616000
| 61> **                         ****END OF INPUT****
================================================================================

                       *****************************
                       * Geometry Optimization Run *
                       *****************************

Geometry optimization settings:
Update method            Update   .... BFGS
Choice of coordinates    CoordSys .... Z-matrix Internals
Initial Hessian          InHess   .... Almoef's Model

Convergence Tolerances:
Energy Change            TolE     ....  1.0000e-06 Eh
Max. Gradient            TolMAXG  ....  1.0000e-04 Eh/bohr
RMS Gradient             TolRMSG  ....  3.0000e-05 Eh/bohr
Max. Displacement        TolMAXD  ....  1.0000e-03 bohr
RMS Displacement         TolRMSD  ....  6.0000e-04 bohr
Strict Convergence                ....  False
------------------------------------------------------------------------------
                        ORCA OPTIMIZATION COORDINATE SETUP
------------------------------------------------------------------------------

The optimization will be done in new redundant internal coordinates
Making redundant internal coordinates   ...  (new redundants) done
Evaluating the initial hessian          ...  (Almloef) done
Evaluating the coordinates              ...  done
Calculating the B-matrix                .... done
Calculating the G-matrix                .... done
Diagonalizing the G-matrix              .... done
The first mode is                       ....  445
The number of degrees of freedom        ....  159

    -----------------------------------------------------------------
                    Redundant Internal Coordinates


    -----------------------------------------------------------------
         Definition                    Initial Value    Approx d2E/dq
    -----------------------------------------------------------------
      1. B(C   1,C   0)                  1.5327         0.369950   
      2. B(N   2,C   1)                  1.4709         0.415710   
      3. B(C   3,N   2)                  1.4760         0.408010   
      4. B(C   4,C   3)                  1.5338         0.368341   
      5. B(C   5,C   0)                  1.5340         0.368185   
      6. B(N   6,C   5)                  1.4743         0.410523   
      7. B(C   7,C   4)                  1.5332         0.369152   
      8. B(C   7,N   6)                  1.4705         0.416370   
      9. B(C   8,C   4)                  1.5212         0.385873   
     10. B(C   8,C   0)                  1.5213         0.385754   
     11. B(C   9,C   4)                  1.5187         0.389374   
     12. B(C  10,C   0)                  1.5193         0.388507   
     13. B(O  11,C   8)                  1.2046         1.105586   
     14. B(C  12,N   6)                  1.4836         0.396817   
     15. B(C  13,N   2)                  1.4842         0.395887   
     16. B(C  14,C  12)                  1.4991         0.418468   
     17. B(C  15,C  14)                  1.3936         0.616668   
     18. B(C  16,C  15)                  1.3959         0.611381   
     19. B(C  17,C  16)                  1.3972         0.608403   
     20. B(C  18,C  17)                  1.3900         0.624802   
     21. B(C  19,C  18)                  1.4066         0.587916   
     22. B(C  19,C  14)                  1.4152         0.569646   
     23. B(C  20,C  13)                  1.4987         0.419086   
     24. B(C  21,C  20)                  1.4122         0.575865   
     25. B(C  22,C  21)                  1.4059         0.589300   
     26. B(C  23,C  22)                  1.3895         0.625909   
     27. B(C  24,C  23)                  1.3982         0.606248   
     28. B(C  25,C  24)                  1.3949         0.613686   
     29. B(C  25,C  20)                  1.3950         0.613489   
     30. B(Cu 26,N   6)                  2.0400         0.519901   
     31. B(Cu 26,N   2)                  2.0216         0.556306   
     32. B(Cu 26,C  21)                  2.3008         0.222684   
     33. B(Cu 26,C  20)                  2.6436         0.063214   
     34. B(Cu 26,C  19)                  2.2670         0.252162   
     35. B(Cu 26,C  14)                  2.6300         0.066449   
     36. B(Cu 26,C  13)                  2.7558         0.041867   
     37. B(Cu 26,C  12)                  2.7678         0.040063   
     38. B(H  27,C   1)                  1.1043         0.341720   
     39. B(H  28,C   1)                  1.1008         0.346136   
     40. B(H  29,C   3)                  1.1004         0.346628   
     41. B(H  30,C   3)                  1.1039         0.342219   
     42. B(H  31,C   5)                  1.1043         0.341677   
     43. B(H  32,C   5)                  1.1006         0.346319   
     44. B(H  33,C   7)                  1.1042         0.341847   
     45. B(H  34,C   7)                  1.1009         0.346029   
     46. B(H  35,C   9)                  1.0987         0.348786   
     47. B(H  36,C   9)                  1.0994         0.347917   
     48. B(H  37,C   9)                  1.0986         0.348961   
     49. B(H  38,C  10)                  1.0995         0.347778   
     50. B(H  39,C  10)                  1.0987         0.348802   
     51. B(H  40,C  10)                  1.0985         0.349038   
     52. B(H  41,C  12)                  1.0987         0.348780   
     53. B(H  42,C  12)                  1.1006         0.346368   
     54. B(H  43,C  13)                  1.1007         0.346195   
     55. B(H  44,C  13)                  1.0990         0.348400   
     56. B(H  45,C  15)                  1.0923         0.357103   
     57. B(H  46,C  16)                  1.0923         0.357106   
     58. B(H  47,C  17)                  1.0916         0.358033   
     59. B(H  48,C  18)                  1.0911         0.358598   
     60. B(H  49,C  19)                  1.1020         0.344526   
     61. B(H  50,C  21)                  1.1017         0.345001   
     62. B(H  51,C  22)                  1.0907         0.359161   
     63. B(H  52,C  23)                  1.0916         0.357932   
     64. B(H  53,C  24)                  1.0922         0.357141   
     65. B(H  54,C  25)                  1.0922         0.357217   
     66. A(C   5,C   0,C  10)          109.0734         0.364887   
     67. A(C   1,C   0,C   5)          112.2182         0.361848   
     68. A(C   8,C   0,C  10)          111.9746         0.367813   
     69. A(C   1,C   0,C  10)          109.3243         0.365186   
     70. A(C   5,C   0,C   8)          106.8300         0.364443   
     71. A(C   1,C   0,C   8)          107.4300         0.364742   
     72. A(C   0,C   1,N   2)          113.1220         0.367141   
     73. A(C   0,C   1,H  28)          110.1990         0.321708   
     74. A(C   0,C   1,H  27)          109.2214         0.321032   
     75. A(N   2,C   1,H  28)          108.7017         0.325966   
     76. A(H  27,C   1,H  28)          107.1084         0.286683   
     77. A(N   2,C   1,H  27)          108.2951         0.325278   
     78. A(C   1,N   2,C  13)          111.6468         0.369116   
     79. A(C   3,N   2,C  13)          110.8712         0.367933   
     80. A(C  13,N   2,Cu 26)          102.5552         0.435400   
     81. A(C   1,N   2,C   3)          111.8769         0.371035   
     82. A(C   1,N   2,Cu 26)          110.5881         0.439252   
     83. A(C   3,N   2,Cu 26)          108.8933         0.437773   
     84. A(H  29,C   3,H  30)          107.1516         0.286812   
     85. A(C   4,C   3,H  30)          108.7076         0.320880   
     86. A(N   2,C   3,H  30)          107.8102         0.324358   
     87. A(N   2,C   3,H  29)          109.0134         0.325041   
     88. A(C   4,C   3,H  29)          109.6394         0.321553   
     89. A(N   2,C   3,C   4)          114.2690         0.365694   
     90. A(C   7,C   4,C   9)          109.2863         0.365190   
     91. A(C   3,C   4,C   9)          109.1347         0.365053   
     92. A(C   3,C   4,C   8)          106.9984         0.364489   
     93. A(C   8,C   4,C   9)          111.9475         0.367973   
     94. A(C   3,C   4,C   7)          112.1305         0.361741   
     95. A(C   7,C   4,C   8)          107.3528         0.364626   
     96. A(N   6,C   5,H  32)          108.9548         0.325322   
     97. A(C   0,C   5,H  31)          108.6688         0.320775   
     98. A(C   0,C   5,H  32)          109.7202         0.321484   
     99. A(C   0,C   5,N   6)          114.3164         0.366052   
    100. A(N   6,C   5,H  31)          107.9768         0.324601   
    101. A(H  31,C   5,H  32)          106.9363         0.286701   
    102. A(C  12,N   6,Cu 26)          102.3803         0.430316   
    103. A(C   7,N   6,Cu 26)          110.3258         0.434052   
    104. A(C   5,N   6,Cu 26)          108.0602         0.432949   
    105. A(C   7,N   6,C  12)          112.0990         0.369365   
    106. A(C   5,N   6,C  12)          111.0570         0.368469   
    107. A(C   5,N   6,C   7)          112.3917         0.371528   
    108. A(H  33,C   7,H  34)          107.3714         0.286685   
    109. A(N   6,C   7,H  33)          108.4066         0.325383   
    110. A(N   6,C   7,H  34)          108.4808         0.326034   
    111. A(C   4,C   7,N   6)          113.1268         0.367105   
    112. A(C   4,C   7,H  33)          109.1302         0.320938   
    113. A(C   4,C   7,H  34)          110.1504         0.321578   
    114. A(C   0,C   8,C   4)          111.4670         0.367384   
    115. A(C   4,C   8,O  11)          124.2665         0.439394   
    116. A(C   0,C   8,O  11)          124.2664         0.439369   
    117. A(H  35,C   9,H  37)          107.9991         0.287966   
    118. A(H  35,C   9,H  36)          108.6462         0.287831   
    119. A(C   4,C   9,H  35)          110.5131         0.324825   
    120. A(H  36,C   9,H  37)          108.7537         0.287854   
    121. A(C   4,C   9,H  36)          110.4746         0.324692   
    122. A(C   4,C   9,H  37)          110.3862         0.324852   
    123. A(H  38,C  10,H  40)          108.6848         0.287846   
    124. A(C   0,C  10,H  38)          110.4979         0.324552   
    125. A(H  39,C  10,H  40)          107.9824         0.287978   
    126. A(C   0,C  10,H  40)          110.4757         0.324745   
    127. A(H  38,C  10,H  39)          108.6905         0.287815   
    128. A(C   0,C  10,H  39)          110.4400         0.324709   
    129. A(N   6,C  12,H  41)          107.9931         0.323888   
    130. A(Cu 26,C  12,H  41)           97.9085         0.251782   
    131. A(N   6,C  12,C  14)          106.7163         0.372013   
    132. A(C  14,C  12,Cu 26)           68.8747         0.285134   
    133. A(N   6,C  12,Cu 26)           46.0487         0.281195   
    134. A(C  14,C  12,H  41)          110.8651         0.328702   
    135. A(N   6,C  12,H  42)          109.8404         0.323520   
    136. A(Cu 26,C  12,H  42)          149.8954         0.251527   
    137. A(H  41,C  12,H  42)          108.4214         0.287630   
    138. A(C  14,C  12,H  42)          112.8920         0.328326   
    139. A(C  20,C  13,H  44)          110.7430         0.328723   
    140. A(H  43,C  13,H  44)          108.3730         0.287558   
    141. A(C  20,C  13,Cu 26)           69.8037         0.287164   
    142. A(Cu 26,C  13,H  43)          150.4628         0.253136   
    143. A(N   2,C  13,Cu 26)           45.7292         0.283017   
    144. A(N   2,C  13,C  20)          106.8085         0.371957   
    145. A(Cu 26,C  13,H  44)           96.9545         0.253372   
    146. A(N   2,C  13,H  44)          107.9383         0.323706   
    147. A(C  20,C  13,H  43)          112.9504         0.328379   
    148. A(N   2,C  13,H  43)          109.9134         0.323369   
    149. A(C  12,C  14,C  19)          117.4645         0.398695   
    150. A(C  19,C  14,Cu 26)           59.4784         0.324833   
    151. A(C  15,C  14,Cu 26)          125.6045         0.329105   
    152. A(C  12,C  14,Cu 26)           79.0055         0.308932   
    153. A(C  12,C  14,C  15)          122.5173         0.404304   
    154. A(C  15,C  14,C  19)          119.5673         0.427101   
    155. A(C  14,C  15,C  16)          120.0008         0.432555   
    156. A(C  16,C  15,H  45)          120.1452         0.351577   
    157. A(C  14,C  15,H  45)          119.8533         0.352089   
    158. A(C  15,C  16,C  17)          120.7080         0.431508   
    159. A(C  17,C  16,H  46)          119.7959         0.351287   
    160. A(C  15,C  16,H  46)          119.4943         0.351577   
    161. A(C  16,C  17,C  18)          119.8510         0.433195   
    162. A(C  18,C  17,H  47)          119.9993         0.353026   
    163. A(C  16,C  17,H  47)          120.1381         0.351441   
    164. A(C  19,C  18,H  48)          120.2874         0.349508   
    165. A(C  17,C  18,H  48)          119.6276         0.353120   
    166. A(C  17,C  18,C  19)          120.0493         0.430537   
    167. A(C  18,C  19,H  49)          119.5416         0.347158   
    168. A(Cu 26,C  19,H  49)           79.4230         0.335167   
    169. A(C  14,C  19,H  49)          119.4395         0.345320   
    170. A(C  14,C  19,C  18)          119.8107         0.423467   
    171. A(C  18,C  19,Cu 26)          113.3836         0.410219   
    172. A(C  14,C  19,Cu 26)           87.9912         0.407932   
    173. A(C  13,C  20,Cu 26)           78.0515         0.306535   
    174. A(C  21,C  20,C  25)          119.5597         0.427537   
    175. A(C  21,C  20,Cu 26)           60.3906         0.322758   
    176. A(C  13,C  20,C  25)          122.4749         0.404041   
    177. A(C  25,C  20,Cu 26)          126.2162         0.326131   
    178. A(C  13,C  20,C  21)          117.5629         0.399560   
    179. A(C  22,C  21,Cu 26)          114.5029         0.401473   
    180. A(C  20,C  21,Cu 26)           87.3586         0.399846   
    181. A(C  22,C  21,H  50)          119.5977         0.347376   
    182. A(C  20,C  21,H  50)          119.4947         0.346030   
    183. A(C  20,C  21,C  22)          119.9598         0.424468   
    184. A(Cu 26,C  21,H  50)           77.7001         0.328412   
    185. A(C  21,C  22,C  23)          119.9296         0.430856   
    186. A(C  23,C  22,H  51)          119.6903         0.353320   
    187. A(C  21,C  22,H  51)          120.3393         0.349739   
    188. A(C  24,C  23,H  52)          120.1039         0.351214   
    189. A(C  22,C  23,H  52)          119.9617         0.353115   
    190. A(C  22,C  23,C  24)          119.9253         0.433057   
    191. A(C  23,C  24,C  25)          120.6465         0.431524   
    192. A(C  23,C  24,H  53)          119.8134         0.351083   
    193. A(C  25,C  24,H  53)          119.5392         0.351807   
    194. A(C  20,C  25,C  24)          119.9714         0.432446   
    195. A(C  24,C  25,H  54)          120.3311         0.351820   
    196. A(C  20,C  25,H  54)          119.6969         0.351801   
    197. A(N   2,Cu 26,C  14)          141.2021         0.358334   
    198. A(C  12,Cu 26,C  13)          151.0439         0.223529   
    199. A(N   6,Cu 26,C  13)          119.4742         0.327908   
    200. A(N   2,Cu 26,C  13)           31.7156         0.331596   
    201. A(N   6,Cu 26,C  12)           31.5710         0.325538   
    202. A(N   2,Cu 26,C  12)          119.3312         0.329189   
    203. A(N   2,Cu 26,N   6)           87.7676         0.515549   
    204. A(C  20,Cu 26,C  21)           32.2508         0.306735   
    205. A(C  19,Cu 26,C  21)           94.4781         0.386801   
    206. A(C  14,Cu 26,C  21)          125.8194         0.309208   
    207. A(C  13,Cu 26,C  21)           58.1650         0.287347   
    208. A(C  12,Cu 26,C  21)          149.9163         0.285379   
    209. A(N   6,Cu 26,C  21)          169.8984         0.437747   
    210. A(N   2,Cu 26,C  21)           89.4986         0.443131   
    211. A(C  19,Cu 26,C  20)          125.4615         0.312948   
    212. A(C  14,Cu 26,C  20)          157.7731         0.254598   
    213. A(C  13,Cu 26,C  20)           32.1448         0.238158   
    214. A(C  12,Cu 26,C  20)          160.2284         0.236679   
    215. A(N   6,Cu 26,C  20)          140.7507         0.351260   
    216. A(N   2,Cu 26,C  20)           60.0264         0.355309   
    217. A(C  14,Cu 26,C  19)           32.5304         0.315492   
    218. A(C  13,Cu 26,C  19)          150.0418         0.293007   
    219. A(C  12,Cu 26,C  19)           58.3066         0.290984   
    220. A(N   6,Cu 26,C  19)           89.6009         0.447700   
    221. A(N   2,Cu 26,C  19)          171.2294         0.453237   
    222. A(C  13,Cu 26,C  14)          160.9566         0.239853   
    223. A(C  12,Cu 26,C  14)           32.1198         0.238356   
    224. A(N   6,Cu 26,C  14)           60.0882         0.354240   
    225. D(H  28,C   1,C   0,C   5)    -61.3916         0.010941   
    226. D(N   2,C   1,C   0,C   8)    -56.6138         0.010941   
    227. D(H  27,C   1,C   0,C   5)   -178.7941         0.010941   
    228. D(N   2,C   1,C   0,C  10)   -178.3303         0.010941   
    229. D(N   2,C   1,C   0,C   5)     60.5185         0.010941   
    230. D(H  27,C   1,C   0,C  10)    -57.6429         0.010941   
    231. D(H  28,C   1,C   0,C   8)   -178.5240         0.010941   
    232. D(H  27,C   1,C   0,C   8)     64.0736         0.010941   
    233. D(H  28,C   1,C   0,C  10)     59.7596         0.010941   
    234. D(C  13,N   2,C   1,C   0)    178.0634         0.015785   
    235. D(Cu 26,N   2,C   1,C   0)    -68.4265         0.015785   
    236. D(C   3,N   2,C   1,H  28)    175.8913         0.015785   
    237. D(C  13,N   2,C   1,H  27)     56.8515         0.015785   
    238. D(Cu 26,N   2,C   1,H  28)     54.3192         0.015785   
    239. D(C   3,N   2,C   1,C   0)     53.1456         0.015785   
    240. D(C   3,N   2,C   1,H  27)    -68.0664         0.015785   
    241. D(C  13,N   2,C   1,H  28)    -59.1909         0.015785   
    242. D(Cu 26,N   2,C   1,H  27)    170.3615         0.015785   
    243. D(C   4,C   3,N   2,C  13)   -178.0576         0.015208   
    244. D(H  30,C   3,N   2,Cu 26)   -169.2111         0.015208   
    245. D(C   4,C   3,N   2,Cu 26)     69.8324         0.015208   
    246. D(C   4,C   3,N   2,C   1)    -52.7109         0.015208   
    247. D(H  30,C   3,N   2,C  13)    -57.1010         0.015208   
    248. D(H  29,C   3,N   2,C  13)     58.8959         0.015208   
    249. D(H  30,C   3,N   2,C   1)     68.2457         0.015208   
    250. D(H  29,C   3,N   2,Cu 26)    -53.2142         0.015208   
    251. D(H  29,C   3,N   2,C   1)   -175.7574         0.015208   
    252. D(C   7,C   4,C   3,N   2)    -62.5389         0.010852   
    253. D(C   7,C   4,C   3,H  29)     60.1680         0.010852   
    254. D(C   8,C   4,C   3,N   2)     54.9132         0.010852   
    255. D(C   7,C   4,C   3,H  30)    177.0031         0.010852   
    256. D(C   8,C   4,C   3,H  29)    177.6201         0.010852   
    257. D(C   9,C   4,C   3,H  30)     55.7708         0.010852   
    258. D(C   8,C   4,C   3,H  30)    -65.5449         0.010852   
    259. D(C   9,C   4,C   3,N   2)    176.2288         0.010852   
    260. D(C   9,C   4,C   3,H  29)    -61.0643         0.010852   
    261. D(H  32,C   5,C   0,C  10)    -61.3726         0.010843   
    262. D(H  32,C   5,C   0,C   1)     59.9228         0.010843   
    263. D(N   6,C   5,C   0,C   1)    -62.8031         0.010843   
    264. D(H  31,C   5,C   0,C  10)     55.2272         0.010843   
    265. D(N   6,C   5,C   0,C   8)     54.6873         0.010843   
    266. D(H  32,C   5,C   0,C   8)    177.4132         0.010843   
    267. D(N   6,C   5,C   0,C  10)    175.9016         0.010843   
    268. D(H  31,C   5,C   0,C   1)    176.5225         0.010843   
    269. D(H  31,C   5,C   0,C   8)    -65.9871         0.010843   
    270. D(Cu 26,N   6,C   5,H  31)   -168.9953         0.015395   
    271. D(C  12,N   6,C   5,H  32)     58.3489         0.015395   
    272. D(C  12,N   6,C   5,C   0)   -178.5106         0.015395   
    273. D(C  12,N   6,C   5,H  31)    -57.4528         0.015395   
    274. D(C   7,N   6,C   5,H  32)   -175.1652         0.015395   
    275. D(Cu 26,N   6,C   5,C   0)     69.9469         0.015395   
    276. D(C   7,N   6,C   5,H  31)     69.0331         0.015395   
    277. D(C   7,N   6,C   5,C   0)    -52.0247         0.015395   
    278. D(Cu 26,N   6,C   5,H  32)    -53.1936         0.015395   
    279. D(H  34,C   7,C   4,C   9)     60.6128         0.010897   
    280. D(N   6,C   7,C   4,C   8)    -56.1797         0.010897   
    281. D(N   6,C   7,C   4,C   3)     61.0605         0.010897   
    282. D(N   6,C   7,C   4,C   9)   -177.7945         0.010897   
    283. D(H  33,C   7,C   4,C   3)   -178.1714         0.010897   
    284. D(H  34,C   7,C   4,C   3)    -60.5322         0.010897   
    285. D(H  33,C   7,C   4,C   9)    -57.0264         0.010897   
    286. D(H  33,C   7,C   4,C   8)     64.5884         0.010897   
    287. D(H  34,C   7,C   4,C   8)   -177.7725         0.010897   
    288. D(C   4,C   7,N   6,C  12)    178.2515         0.015835   
    289. D(H  33,C   7,N   6,Cu 26)    170.4753         0.015835   
    290. D(H  34,C   7,N   6,C   5)    174.8557         0.015835   
    291. D(H  34,C   7,N   6,C  12)    -59.2213         0.015835   
    292. D(H  33,C   7,N   6,C   5)    -68.8491         0.015835   
    293. D(H  34,C   7,N   6,Cu 26)     54.1801         0.015835   
    294. D(H  33,C   7,N   6,C  12)     57.0738         0.015835   
    295. D(C   4,C   7,N   6,Cu 26)    -68.3470         0.015835   
    296. D(C   4,C   7,N   6,C   5)     52.3286         0.015835   
    297. D(C   4,C   8,C   0,C   1)     60.6893         0.011084   
    298. D(O  11,C   8,C   4,C   9)      1.1753         0.011091   
    299. D(O  11,C   8,C   4,C   3)    120.6955         0.011091   
    300. D(C   0,C   8,C   4,C   9)   -178.9477         0.011091   
    301. D(C   0,C   8,C   4,C   7)     61.1189         0.011091   
    302. D(O  11,C   8,C   0,C  10)      0.6124         0.011084   
    303. D(C   0,C   8,C   4,C   3)    -59.4274         0.011091   
    304. D(C   4,C   8,C   0,C  10)   -179.2646         0.011084   
    305. D(O  11,C   8,C   0,C   1)   -119.4337         0.011084   
    306. D(O  11,C   8,C   4,C   7)   -118.7581         0.011091   
    307. D(C   4,C   8,C   0,C   5)    -59.9104         0.011084   
    308. D(O  11,C   8,C   0,C   5)    119.9666         0.011084   
    309. D(H  37,C   9,C   4,C   8)    -59.8655         0.012055   
    310. D(H  35,C   9,C   4,C   7)    178.3368         0.012055   
    311. D(H  37,C   9,C   4,C   3)   -178.1228         0.012055   
    312. D(H  36,C   9,C   4,C   8)    179.8120         0.012055   
    313. D(H  35,C   9,C   4,C   8)     59.5413         0.012055   
    314. D(H  35,C   9,C   4,C   3)    -58.7160         0.012055   
    315. D(H  36,C   9,C   4,C   3)     61.5547         0.012055   
    316. D(H  37,C   9,C   4,C   7)     58.9300         0.012055   
    317. D(H  36,C   9,C   4,C   7)    -61.3925         0.012055   
    318. D(H  40,C  10,C   0,C   8)     58.4681         0.012004   
    319. D(H  40,C  10,C   0,C   5)    -59.5579         0.012004   
    320. D(H  40,C  10,C   0,C   1)    177.4014         0.012004   
    321. D(H  39,C  10,C   0,C   8)    -60.9284         0.012004   
    322. D(H  39,C  10,C   0,C   5)   -178.9544         0.012004   
    323. D(H  39,C  10,C   0,C   1)     58.0049         0.012004   
    324. D(H  38,C  10,C   0,C   8)    178.7779         0.012004   
    325. D(H  38,C  10,C   0,C   5)     60.7519         0.012004   
    326. D(H  38,C  10,C   0,C   1)    -62.2888         0.012004   
    327. D(H  41,C  12,N   6,C   7)     34.6663         0.015289   
    328. D(H  42,C  12,N   6,Cu 26)    158.3793         0.015289   
    329. D(H  42,C  12,N   6,C   7)    -83.3945         0.015289   
    330. D(H  42,C  12,N   6,C   5)     43.2528         0.015289   
    331. D(H  41,C  12,N   6,Cu 26)    -83.5598         0.015289   
    332. D(H  41,C  12,N   6,C   5)    161.3136         0.015289   
    333. D(Cu 26,C  12,N   6,C   7)    118.2261         0.015289   
    334. D(Cu 26,C  12,N   6,C   5)   -115.1266         0.015289   
    335. D(C  14,C  12,N   6,Cu 26)     35.6853         0.015289   
    336. D(C  14,C  12,N   6,C   5)    -79.4412         0.015289   
    337. D(C  14,C  12,N   6,C   7)    153.9115         0.015289   
    338. D(H  44,C  13,N   2,Cu 26)    -82.0762         0.015218   
    339. D(H  43,C  13,N   2,C   3)     43.8114         0.015218   
    340. D(H  43,C  13,N   2,C   1)    -81.6645         0.015218   
    341. D(C  20,C  13,N   2,Cu 26)     37.0463         0.015218   
    342. D(C  20,C  13,N   2,C   3)    -79.0544         0.015218   
    343. D(C  20,C  13,N   2,C   1)    155.4697         0.015218   
    344. D(Cu 26,C  13,N   2,C   3)   -116.1007         0.015218   
    345. D(Cu 26,C  13,N   2,C   1)    118.4234         0.015218   
    346. D(H  44,C  13,N   2,C   3)    161.8231         0.015218   
    347. D(H  44,C  13,N   2,C   1)     36.3471         0.015218   
    348. D(H  43,C  13,N   2,Cu 26)    159.9121         0.015218   
    349. D(C  15,C  14,C  12,Cu 26)    125.4140         0.014716   
    350. D(C  15,C  14,C  12,N   6)     98.6565         0.014716   
    351. D(C  15,C  14,C  12,H  41)   -143.9796         0.014716   
    352. D(Cu 26,C  14,C  12,H  41)     90.6064         0.014716   
    353. D(Cu 26,C  14,C  12,N   6)    -26.7575         0.014716   
    354. D(C  19,C  14,C  12,H  42)    165.6412         0.014716   
    355. D(C  19,C  14,C  12,H  41)     43.7680         0.014716   
    356. D(C  19,C  14,C  12,Cu 26)    -46.8384         0.014716   
    357. D(C  19,C  14,C  12,N   6)    -73.5960         0.014716   
    358. D(Cu 26,C  14,C  12,H  42)   -147.5204         0.014716   
    359. D(C  15,C  14,C  12,H  42)    -22.1064         0.014716   
    360. D(C  16,C  15,C  14,Cu 26)    -71.5077         0.028575   
    361. D(H  45,C  15,C  14,Cu 26)    108.1765         0.028575   
    362. D(H  45,C  15,C  14,C  19)   -179.9988         0.028575   
    363. D(H  45,C  15,C  14,C  12)      7.9058         0.028575   
    364. D(C  16,C  15,C  14,C  19)      0.3169         0.028575   
    365. D(C  16,C  15,C  14,C  12)   -171.7785         0.028575   
    366. D(H  46,C  16,C  15,H  45)      0.3012         0.025822   
    367. D(H  46,C  16,C  15,C  14)    179.9846         0.025822   
    368. D(C  17,C  16,C  15,H  45)   -179.2064         0.025822   
    369. D(C  17,C  16,C  15,C  14)      0.4769         0.025822   
    370. D(H  47,C  17,C  16,H  46)      0.4609         0.025557   
    371. D(H  47,C  17,C  16,C  15)    179.9670         0.025557   
    372. D(C  18,C  17,C  16,H  46)    179.2176         0.025557   
    373. D(C  18,C  17,C  16,C  15)     -1.2762         0.025557   
    374. D(C  19,C  18,C  17,H  47)   -179.9733         0.027039   
    375. D(H  48,C  18,C  17,H  47)      2.1928         0.027039   
    376. D(H  48,C  18,C  17,C  16)   -176.5657         0.027039   
    377. D(C  19,C  18,C  17,C  16)      1.2682         0.027039   
    378. D(Cu 26,C  19,C  18,C  17)    101.2756         0.025824   
    379. D(H  49,C  19,C  14,Cu 26)    -76.6619         0.025957   
    380. D(H  49,C  19,C  14,C  15)    167.0715         0.025957   
    381. D(Cu 26,C  19,C  14,C  12)     56.2237         0.025957   
    382. D(Cu 26,C  19,C  14,C  15)   -116.2666         0.025957   
    383. D(C  18,C  19,C  14,Cu 26)    115.9508         0.025957   
    384. D(C  18,C  19,C  14,C  15)     -0.3159         0.025957   
    385. D(C  18,C  19,C  14,C  12)    172.1744         0.025957   
    386. D(C  14,C  19,C  18,C  17)     -0.4797         0.025824   
    387. D(H  49,C  19,C  14,C  12)    -20.4382         0.025957   
    388. D(H  49,C  19,C  18,C  17)   -167.8541         0.025824   
    389. D(Cu 26,C  19,C  18,H  48)    -80.9050         0.025824   
    390. D(H  49,C  19,C  18,H  48)      9.9654         0.025824   
    391. D(C  14,C  19,C  18,H  48)    177.3398         0.025824   
    392. D(Cu 26,C  20,C  13,H  43)   -148.3156         0.014758   
    393. D(Cu 26,C  20,C  13,N   2)    -27.3647         0.014758   
    394. D(C  25,C  20,C  13,N   2)     98.1685         0.014758   
    395. D(C  21,C  20,C  13,N   2)    -74.5101         0.014758   
    396. D(C  21,C  20,C  13,H  43)    164.5390         0.014758   
    397. D(C  21,C  20,C  13,H  44)     42.7767         0.014758   
    398. D(C  21,C  20,C  13,Cu 26)    -47.1454         0.014758   
    399. D(C  25,C  20,C  13,H  44)   -144.5447         0.014758   
    400. D(Cu 26,C  20,C  13,H  44)     89.9221         0.014758   
    401. D(C  25,C  20,C  13,H  43)    -22.7824         0.014758   
    402. D(C  25,C  20,C  13,Cu 26)    125.5332         0.014758   
    403. D(H  50,C  21,C  20,C  13)    -18.6893         0.026558   
    404. D(C  22,C  21,C  20,C  25)     -0.4077         0.026558   
    405. D(C  22,C  21,C  20,Cu 26)    116.9121         0.026558   
    406. D(C  22,C  21,C  20,C  13)    172.4927         0.026558   
    407. D(Cu 26,C  21,C  20,C  13)     55.5807         0.026558   
    408. D(H  50,C  21,C  20,C  25)    168.4103         0.026558   
    409. D(H  50,C  21,C  20,Cu 26)    -74.2700         0.026558   
    410. D(Cu 26,C  21,C  20,C  25)   -117.3197         0.026558   
    411. D(H  51,C  22,C  21,H  50)      8.7386         0.025952   
    412. D(H  51,C  22,C  21,Cu 26)    -80.6685         0.025952   
    413. D(H  51,C  22,C  21,C  20)    177.5450         0.025952   
    414. D(C  23,C  22,C  21,Cu 26)    101.6602         0.025952   
    415. D(C  23,C  22,C  21,C  20)     -0.1262         0.025952   
    416. D(C  23,C  22,C  21,H  50)   -168.9326         0.025952   
    417. D(H  52,C  23,C  22,H  51)      2.0520         0.027141   
    418. D(H  52,C  23,C  22,C  21)    179.7384         0.027141   
    419. D(C  24,C  23,C  22,H  51)   -176.8513         0.027141   
    420. D(C  24,C  23,C  22,C  21)      0.8352         0.027141   
    421. D(H  53,C  24,C  23,H  52)      0.4202         0.025366   
    422. D(H  53,C  24,C  23,C  22)    179.3219         0.025366   
    423. D(C  25,C  24,C  23,H  52)   -179.9232         0.025366   
    424. D(C  25,C  24,C  23,C  22)     -1.0215         0.025366   
    425. D(H  54,C  25,C  24,H  53)      0.4107         0.026029   
    426. D(H  54,C  25,C  24,C  23)   -179.2469         0.026029   
    427. D(C  20,C  25,C  24,H  53)   -179.8591         0.026029   
    428. D(C  20,C  25,C  24,C  23)      0.4833         0.026029   
    429. D(H  54,C  25,C  20,Cu 26)    106.7420         0.028262   
    430. D(H  54,C  25,C  20,C  21)    179.9616         0.028262   
    431. D(H  54,C  25,C  20,C  13)      7.4240         0.028262   
    432. D(C  24,C  25,C  20,Cu 26)    -72.9900         0.028262   
    433. D(C  24,C  25,C  20,C  21)      0.2296         0.028262   
    434. D(C  24,C  25,C  20,C  13)   -172.3080         0.028262   
    435. D(N   2,Cu 26,C  12,H  42)    -42.3452         0.001511   
    436. D(N   2,Cu 26,C  12,H  41)    108.7777         0.001511   
    437. D(N   2,Cu 26,C  12,C  14)   -141.8428         0.001511   
    438. D(C  21,Cu 26,N   6,C  12)    106.7791         0.003174   
    439. D(C  21,Cu 26,N   6,C   7)    -12.6963         0.003174   
    440. D(C  21,Cu 26,N   6,C   5)   -135.9312         0.003174   
    441. D(C  20,Cu 26,N   6,C   7)     28.6386         0.003174   
    442. D(C  20,Cu 26,N   6,C   5)    -94.5962         0.003174   
    443. D(C  19,Cu 26,N   6,C  12)     -7.1786         0.003174   
    444. D(C  19,Cu 26,N   6,C   7)   -126.6541         0.003174   
    445. D(C  19,Cu 26,N   6,C   5)    110.1111         0.003174   
    446. D(C  14,Cu 26,N   6,C  12)    -21.5545         0.003174   
    447. D(C  14,Cu 26,N   6,C   7)   -141.0300         0.003174   
    448. D(C  13,Cu 26,N   6,C  12)   -179.6050         0.003174   
    449. D(C  13,Cu 26,N   6,C   7)     60.9196         0.003174   
    450. D(C  13,Cu 26,N   6,C   5)    -62.3153         0.003174   
    451. D(C  12,Cu 26,N   6,C   5)    117.2897         0.003174   
    452. D(N   2,Cu 26,N   6,C  12)   -178.8103         0.003174   
    453. D(N   2,Cu 26,N   6,C   7)     61.7142         0.003174   
    454. D(N   2,Cu 26,N   6,C   5)    -61.5206         0.003174   
    455. D(C  21,Cu 26,N   2,C  13)     -8.4107         0.003417   
    456. D(C  21,Cu 26,N   2,C   3)    109.1056         0.003417   
    457. D(C  21,Cu 26,N   2,C   1)   -127.5780         0.003417   
    458. D(C  12,Cu 26,N   6,C   7)   -119.4755         0.003174   
    459. D(C  20,Cu 26,N   2,C  13)    -22.1748         0.003417   
    460. D(C  20,Cu 26,N   2,C   3)     95.3415         0.003417   
    461. D(C  20,Cu 26,N   2,C   1)   -141.3421         0.003417   
    462. D(C  14,Cu 26,N   6,C   5)     95.7352         0.003174   
    463. D(C  19,Cu 26,N   2,C  13)    108.6767         0.003417   
    464. D(C  19,Cu 26,N   2,C   3)   -133.8070         0.003417   
    465. D(C  19,Cu 26,N   2,C   1)    -10.4906         0.003417   
    466. D(C  14,Cu 26,N   2,C  13)    148.9829         0.003417   
    467. D(C  14,Cu 26,N   2,C   3)    -93.5008         0.003417   
    468. D(C  14,Cu 26,N   2,C   1)     29.8156         0.003417   
    469. D(C  13,Cu 26,N   2,C   3)    117.5163         0.003417   
    470. D(C  20,Cu 26,N   6,C  12)    148.1141         0.003174   
    471. D(C  13,Cu 26,N   2,C   1)   -119.1673         0.003417   
    472. D(C  12,Cu 26,N   2,C  13)   -179.3984         0.003417   
    473. D(C  12,Cu 26,N   2,C   3)    -61.8821         0.003417   
    474. D(N   2,Cu 26,C  12,N   6)      1.3636         0.001511   
    475. D(C  12,Cu 26,N   2,C   1)     61.4343         0.003417   
    476. D(N   6,Cu 26,N   2,C  13)   -178.6840         0.003417   
    477. D(N   6,Cu 26,N   2,C   3)    -61.1677         0.003417   
    478. D(N   6,Cu 26,C  12,C  14)   -143.2064         0.001511   
    479. D(N   6,Cu 26,N   2,C   1)     62.1487         0.003417   
    480. D(C  20,Cu 26,C  21,H  50)    120.9644         0.001782   
    481. D(C  19,Cu 26,C  21,H  50)    -73.9296         0.001782   
    482. D(C  19,Cu 26,C  21,C  22)     43.2103         0.001782   
    483. D(C  19,Cu 26,C  21,C  20)    165.1060         0.001782   
    484. D(C  14,Cu 26,C  21,C  22)     52.6636         0.001782   
    485. D(C  14,Cu 26,C  21,C  20)    174.5593         0.001782   
    486. D(C  13,Cu 26,C  21,H  50)     93.0513         0.001782   
    487. D(C  13,Cu 26,C  21,C  22)   -149.8088         0.001782   
    488. D(C  13,Cu 26,C  21,C  20)    -27.9131         0.001782   
    489. D(C  12,Cu 26,C  21,H  50)    -97.5654         0.001782   
    490. D(C  12,Cu 26,C  21,C  22)     19.5746         0.001782   
    491. D(N   6,Cu 26,C  21,H  50)    172.5074         0.001782   
    492. D(N   6,Cu 26,C  21,C  22)    -70.3527         0.001782   
    493. D(N   6,Cu 26,C  21,C  20)     51.5430         0.001782   
    494. D(N   2,Cu 26,C  21,C  22)   -144.6159         0.001782   
    495. D(N   2,Cu 26,C  21,C  20)    -22.7203         0.001782   
    496. D(C  21,Cu 26,C  20,C  25)    106.6867         0.001526   
    497. D(C  19,Cu 26,C  20,C  25)     88.3497         0.001526   
    498. D(C  19,Cu 26,C  20,C  21)    -18.3370         0.001526   
    499. D(C  19,Cu 26,C  20,C  13)   -149.9634         0.001526   
    500. D(C  14,Cu 26,C  20,C  25)     94.9599         0.001526   
    501. D(C  14,Cu 26,C  20,C  21)    -11.7268         0.001526   
    502. D(C  14,Cu 26,C  20,C  13)   -143.3533         0.001526   
    503. D(C  13,Cu 26,C  20,C  25)   -121.6869         0.001526   
    504. D(C  12,Cu 26,C  20,C  25)     -5.9344         0.001526   
    505. D(C  12,Cu 26,C  20,C  21)   -112.6210         0.001526   
    506. D(C  12,Cu 26,C  20,C  13)    115.7525         0.001526   
    507. D(N   6,Cu 26,C  20,C  21)   -167.4623         0.001526   
    508. D(N   6,Cu 26,C  20,C  13)     60.9113         0.001526   
    509. D(N   2,Cu 26,C  20,C  25)    -99.7909         0.001526   
    510. D(N   2,Cu 26,C  20,C  13)     21.8960         0.001526   
    511. D(C  21,Cu 26,C  19,H  49)    -73.8846         0.001859   
    512. D(C  21,Cu 26,C  19,C  18)     43.8721         0.001859   
    513. D(C  21,Cu 26,C  19,C  14)    165.6608         0.001859   
    514. D(C  20,Cu 26,C  19,H  49)    -64.1900         0.001859   
    515. D(C  20,Cu 26,C  19,C  18)     53.5667         0.001859   
    516. D(C  20,Cu 26,C  19,C  14)    175.3553         0.001859   
    517. D(C  14,Cu 26,C  19,C  18)   -121.7887         0.001859   
    518. D(C  13,Cu 26,C  19,H  49)    -96.4203         0.001859   
    519. D(C  13,Cu 26,C  19,C  18)     21.3364         0.001859   
    520. D(C  12,Cu 26,C  19,H  49)     92.4537         0.001859   
    521. D(C  12,Cu 26,C  19,C  18)   -149.7896         0.001859   
    522. D(C  12,Cu 26,C  19,C  14)    -28.0010         0.001859   
    523. D(N   6,Cu 26,C  19,C  18)   -145.3797         0.001859   
    524. D(N   6,Cu 26,C  19,C  14)    -23.5910         0.001859   
    525. D(N   2,Cu 26,C  19,H  49)    169.3688         0.001859   
    526. D(N   2,Cu 26,C  19,C  18)    -72.8745         0.001859   
    527. D(N   2,Cu 26,C  19,C  14)     48.9141         0.001859   
    528. D(C  21,Cu 26,C  14,C  19)    -17.7279         0.001528   
    529. D(C  21,Cu 26,C  14,C  15)     88.6740         0.001528   
    530. D(C  20,Cu 26,C  14,C  19)    -10.0413         0.001528   
    531. D(C  20,Cu 26,C  14,C  15)     96.3607         0.001528   
    532. D(C  20,Cu 26,C  14,C  12)   -141.3361         0.001528   
    533. D(C  19,Cu 26,C  14,C  15)    106.4019         0.001528   
    534. D(C  19,Cu 26,C  14,C  12)   -131.2948         0.001528   
    535. D(C  13,Cu 26,C  14,C  19)   -113.3083         0.001528   
    536. D(C  13,Cu 26,C  14,C  15)     -6.9064         0.001528   
    537. D(C  13,Cu 26,C  14,C  12)    115.3968         0.001528   
    538. D(C  12,Cu 26,C  14,C  19)    131.2948         0.001528   
    539. D(C  12,Cu 26,C  14,C  15)   -122.3032         0.001528   
    540. D(N   6,Cu 26,C  14,C  19)    152.5034         0.001528   
    541. D(N   6,Cu 26,C  14,C  15)   -101.0947         0.001528   
    542. D(C  21,Cu 26,C  14,C  12)   -149.0227         0.001528   
    543. D(N   6,Cu 26,C  14,C  12)     21.2085         0.001528   
    544. D(N   2,Cu 26,C  14,C  19)   -169.4309         0.001528   
    545. D(N   2,Cu 26,C  14,C  15)    -63.0290         0.001528   
    546. D(N   2,Cu 26,C  14,C  12)     59.2743         0.001528   
    547. D(C  21,Cu 26,C  13,H  44)    -81.5886         0.001512   
    548. D(C  21,Cu 26,C  13,H  43)    129.1642         0.001512   
    549. D(C  21,Cu 26,C  13,C  20)     28.0025         0.001512   
    550. D(N   6,Cu 26,C  19,H  49)     96.8636         0.001859   
    551. D(C  21,Cu 26,C  13,N   2)    170.0866         0.001512   
    552. D(C  20,Cu 26,C  13,H  44)   -109.5911         0.001512   
    553. D(C  20,Cu 26,C  13,H  43)    101.1618         0.001512   
    554. D(C  13,Cu 26,C  19,C  14)    143.1251         0.001859   
    555. D(C  20,Cu 26,C  13,N   2)    142.0841         0.001512   
    556. D(C  19,Cu 26,C  13,H  44)    -54.8614         0.001512   
    557. D(C  19,Cu 26,C  13,H  43)    155.8915         0.001512   
    558. D(C  14,Cu 26,C  19,H  49)    120.4547         0.001859   
    559. D(C  19,Cu 26,C  13,C  20)     54.7297         0.001512   
    560. D(C  19,Cu 26,C  13,N   2)   -163.1861         0.001512   
    561. D(C  14,Cu 26,C  13,H  44)     26.6211         0.001512   
    562. D(C  14,Cu 26,C  13,H  43)   -122.6260         0.001512   
    563. D(C  14,Cu 26,C  13,C  20)    136.2123         0.001512   
    564. D(C  14,Cu 26,C  13,N   2)    -81.7036         0.001512   
    565. D(C  12,Cu 26,C  13,H  44)    109.4081         0.001512   
    566. D(N   2,Cu 26,C  20,C  21)    153.5225         0.001526   
    567. D(C  12,Cu 26,C  13,H  43)    -39.8390         0.001512   
    568. D(C  12,Cu 26,C  13,C  20)   -141.0008         0.001512   
    569. D(C  12,Cu 26,C  13,N   2)      1.0833         0.001512   
    570. D(N   6,Cu 26,C  20,C  25)    -60.7756         0.001526   
    571. D(N   6,Cu 26,C  13,H  44)    109.8353         0.001512   
    572. D(N   6,Cu 26,C  13,H  43)    -39.4118         0.001512   
    573. D(N   6,Cu 26,C  13,C  20)   -140.5736         0.001512   
    574. D(C  13,Cu 26,C  20,C  21)    131.6264         0.001526   
    575. D(N   6,Cu 26,C  13,N   2)      1.5106         0.001512   
    576. D(N   2,Cu 26,C  13,H  44)    108.3247         0.001512   
    577. D(N   2,Cu 26,C  13,H  43)    -40.9224         0.001512   
    578. D(N   2,Cu 26,C  13,C  20)   -142.0841         0.001512   
    579. D(C  21,Cu 26,C  12,H  42)    155.8641         0.001511   
    580. D(C  21,Cu 26,C  12,H  41)    -53.0130         0.001511   
    581. D(C  21,Cu 26,C  12,C  14)     56.3665         0.001511   
    582. D(C  21,Cu 26,C  20,C  13)   -131.6264         0.001526   
    583. D(C  21,Cu 26,C  12,N   6)   -160.4271         0.001511   
    584. D(C  20,Cu 26,C  12,H  42)   -124.8200         0.001511   
    585. D(C  20,Cu 26,C  12,H  41)     26.3029         0.001511   
    586. D(N   2,Cu 26,C  21,H  50)     98.2441         0.001782   
    587. D(C  20,Cu 26,C  12,C  14)    135.6824         0.001511   
    588. D(C  20,Cu 26,C  12,N   6)    -81.1112         0.001511   
    589. D(C  19,Cu 26,C  12,H  42)    127.8461         0.001511   
    590. D(C  12,Cu 26,C  21,C  20)    141.4703         0.001782   
    591. D(C  19,Cu 26,C  12,H  41)    -81.0310         0.001511   
    592. D(C  19,Cu 26,C  12,C  14)     28.3485         0.001511   
    593. D(C  19,Cu 26,C  12,N   6)    171.5549         0.001511   
    594. D(C  14,Cu 26,C  12,H  42)     99.4976         0.001511   
    595. D(C  14,Cu 26,C  12,H  41)   -109.3795         0.001511   
    596. D(C  14,Cu 26,C  12,N   6)    143.2064         0.001511   
    597. D(C  13,Cu 26,C  12,H  42)    -42.9984         0.001511   
    598. D(C  14,Cu 26,C  21,H  50)    -64.4763         0.001782   
    599. D(C  13,Cu 26,C  12,H  41)    108.1245         0.001511   
    600. D(C  13,Cu 26,C  12,C  14)   -142.4961         0.001511   
    601. D(C  13,Cu 26,C  12,N   6)      0.7104         0.001511   
    602. D(C  20,Cu 26,C  21,C  22)   -121.8957         0.001782   
    603. D(N   6,Cu 26,C  12,H  42)    -43.7088         0.001511   
    604. D(N   6,Cu 26,C  12,H  41)    107.4141         0.001511   
    -----------------------------------------------------------------

Number of atoms                         .... 55
Number of degrees of freedom            .... 604

         *************************************************************
         *                GEOMETRY OPTIMIZATION CYCLE   1            *
         *************************************************************
---------------------------------
CARTESIAN COORDINATES (ANGSTROEM)
---------------------------------
  C     -1.348964   -1.216547    1.767921
  C     -0.793241   -2.018350    0.585841
  N      0.435766   -1.439387    0.022000
  C      1.465256   -1.219853    1.056662
  C      0.980369   -0.412148    2.267102
  C     -1.710147    0.221504    1.374759
  N     -0.565227    1.033147    0.923059
  C      0.551349    1.007921    1.879576
  C     -0.247920   -1.123960    2.813571
  C      2.096399   -0.336247    3.294351
  C     -2.588511   -1.909975    2.307409
  O     -0.338237   -1.557559    3.933844
  C     -0.988781    2.416831    0.595950
  C      0.970471   -2.265517   -1.089070
  C     -1.608330    2.367004   -0.768236
  C     -2.987064    2.311503   -0.963259
  C     -3.502912    2.094204   -2.242025
  C     -2.650362    1.920540   -3.335310
  C     -1.273613    1.990281   -3.157007
  C     -0.739707    2.208589   -1.874158
  C      1.787717   -1.353378   -1.952919
  C      1.094758   -0.447037   -2.785182
  C      1.804380    0.536564   -3.496225
  C      3.186418    0.616828   -3.376717
  C      3.870144   -0.291862   -2.563222
  C      3.176367   -1.269542   -1.850118
  Cu     0.038969    0.320425   -0.890416
  H     -0.570990   -3.047961    0.917349
  H     -1.547698   -2.090922   -0.212416
  H      2.331266   -0.717685    0.599838
  H      1.809325   -2.208903    1.405821
  H     -2.160706    0.724312    2.248629
  H     -2.474265    0.209188    0.582710
  H      0.243970    1.553859    2.788773
  H      1.400116    1.553736    1.439631
  H      2.399526   -1.344416    3.608722
  H      2.971820    0.178865    2.873744
  H      1.759512    0.210349    4.185732
  H     -3.375197   -1.944277    1.540076
  H     -2.350443   -2.937867    2.613763
  H     -2.976317   -1.375645    3.185353
  H     -0.094188    3.054666    0.596394
  H     -1.680809    2.787816    1.367151
  H      1.551787   -3.107804   -0.683845
  H      0.117088   -2.671640   -1.649947
  H     -3.661799    2.433196   -0.112972
  H     -4.584909    2.051965   -2.385403
  H     -3.063807    1.750656   -4.331162
  H     -0.612966    1.910305   -4.021721
  H      0.327224    2.462274   -1.765608
  H      0.033342   -0.627663   -3.018475
  H      1.280262    1.214036   -4.171489
  H      3.738380    1.377621   -3.931891
  H      4.957629   -0.234073   -2.479323
  H      3.714501   -1.968964   -1.206616

----------------------------
CARTESIAN COORDINATES (A.U.)
----------------------------
  NO LB      ZA    FRAG     MASS         X           Y           Z
   0 C     6.0000    0    12.011   -2.549173   -2.298941    3.340887
   1 C     6.0000    0    12.011   -1.499008   -3.814129    1.107079
   2 N     7.0000    0    14.007    0.823478   -2.720047    0.041574
   3 C     6.0000    0    12.011    2.768933   -2.305188    1.996802
   4 C     6.0000    0    12.011    1.852629   -0.778847    4.284202
   5 C     6.0000    0    12.011   -3.231709    0.418582    2.597918
   6 N     7.0000    0    14.007   -1.068124    1.952365    1.744329
   7 C     6.0000    0    12.011    1.041899    1.904695    3.551884
   8 C     6.0000    0    12.011   -0.468501   -2.123977    5.316879
   9 C     6.0000    0    12.011    3.961620   -0.635415    6.225421
  10 C     6.0000    0    12.011   -4.891577   -3.609330    4.360371
  11 O     8.0000    0    15.999   -0.639175   -2.943360    7.433888
  12 C     6.0000    0    12.011   -1.868525    4.567149    1.126182
  13 C     6.0000    0    12.011    1.833924   -4.281207   -2.058044
  14 C     6.0000    0    12.011   -3.039303    4.472989   -1.451756
  15 C     6.0000    0    12.011   -5.644733    4.368108   -1.820296
  16 C     6.0000    0    12.011   -6.619544    3.957472   -4.236813
  17 C     6.0000    0    12.011   -5.008458    3.629295   -6.302822
  18 C     6.0000    0    12.011   -2.406780    3.761086   -5.965879
  19 C     6.0000    0    12.011   -1.397844    4.173628   -3.541645
  20 C     6.0000    0    12.011    3.378296   -2.557514   -3.690482
  21 C     6.0000    0    12.011    2.068793   -0.844778   -5.263231
  22 C     6.0000    0    12.011    3.409784    1.013959   -6.606908
  23 C     6.0000    0    12.011    6.021457    1.165636   -6.381070
  24 C     6.0000    0    12.011    7.313512   -0.551539   -4.843788
  25 C     6.0000    0    12.011    6.002464   -2.399087   -3.496216
  26 Cu   29.0000    0    63.550    0.073641    0.605515   -1.682642
  27 H     1.0000    0     1.008   -1.079015   -5.759812    1.733538
  28 H     1.0000    0     1.008   -2.924725   -3.951270   -0.401408
  29 H     1.0000    0     1.008    4.405454   -1.356228    1.133530
  30 H     1.0000    0     1.008    3.419129   -4.174222    2.656617
  31 H     1.0000    0     1.008   -4.083143    1.368751    4.249293
  32 H     1.0000    0     1.008   -4.675683    0.395308    1.101162
  33 H     1.0000    0     1.008    0.461036    2.936368    5.270017
  34 H     1.0000    0     1.008    2.645836    2.936136    2.720508
  35 H     1.0000    0     1.008    4.534447   -2.540578    6.819496
  36 H     1.0000    0     1.008    5.615926    0.338006    5.430589
  37 H     1.0000    0     1.008    3.324996    0.397502    7.909887
  38 H     1.0000    0     1.008   -6.378198   -3.674151    2.910322
  39 H     1.0000    0     1.008   -4.441694   -5.551764    4.939296
  40 H     1.0000    0     1.008   -5.624424   -2.599592    6.019445
  41 H     1.0000    0     1.008   -0.177990    5.772482    1.127021
  42 H     1.0000    0     1.008   -3.176269    5.268209    2.583541
  43 H     1.0000    0     1.008    2.932452   -5.872898   -1.292280
  44 H     1.0000    0     1.008    0.221264   -5.048668   -3.117948
  45 H     1.0000    0     1.008   -6.919797    4.598074   -0.213486
  46 H     1.0000    0     1.008   -8.664222    3.877652   -4.507758
  47 H     1.0000    0     1.008   -5.789756    3.308260   -8.184710
  48 H     1.0000    0     1.008   -1.158338    3.609953   -7.599951
  49 H     1.0000    0     1.008    0.618364    4.653024   -3.336516
  50 H     1.0000    0     1.008    0.063007   -1.186111   -5.704091
  51 H     1.0000    0     1.008    2.419345    2.294196   -7.882972
  52 H     1.0000    0     1.008    7.064514    2.603326   -7.430197
  53 H     1.0000    0     1.008    9.368561   -0.442334   -4.685241
  54 H     1.0000    0     1.008    7.019390   -3.720803   -2.280174

--------------------------------
INTERNAL COORDINATES (ANGSTROEM)
--------------------------------
 C      0   0   0     0.000000000000     0.00000000     0.00000000
 C      1   0   0     1.532654308687     0.00000000     0.00000000
 N      2   1   0     1.470908914481   113.12198373     0.00000000
 C      3   2   1     1.475998066225   111.87694140    53.14558776
 C      4   3   2     1.533840853346   114.26896802   307.28913817
 C      1   2   3     1.533955734803   112.21815430    60.51849977
 N      6   1   2     1.474326644896   114.31636320   297.19689815
 C      7   6   1     1.470477162740   112.39171710   307.97529347
 C      5   4   3     1.521183275883   106.99840848    54.91319146
 C      5   4   3     1.518724606603   109.13468194   176.22884588
 C      1   2   3     1.519330924630   109.32428061   181.66972747
 O      9   5   4     1.204648018227   124.26650049   120.69554297
 C      7   6   1     1.483569917683   111.05699424   181.48937685
 C      3   2   1     1.484209135811   111.64681274   178.06343124
 C     13   7   6     1.499108780551   106.71629900   280.55877110
 C     15  13   7     1.393564413397   122.51727742    98.65647589
 C     16  15  13     1.395908484558   120.00075080   188.22153964
 C     17  16  15     1.397237552681   120.70804727     0.47692543
 C     18  17  16     1.389997689168   119.85095427   358.72377782
 C     19  18  17     1.406561607787   120.04930581     1.26823342
 C     14   3   2     1.498707334551   106.80850045   155.46967541
 C     21  14   3     1.412199661921   117.56293848   285.48990657
 C     22  21  14     1.405921924551   119.95977181   172.49273531
 C     23  22  21     1.389515564938   119.92964386   359.87375211
 C     24  23  22     1.398203445211   119.92533759     0.83515410
 C     25  24  23     1.394884232811   120.64647873   358.97853058
 Cu     3   2   1     2.021605572709   110.58809844   291.57351069
 H      2   1   3     1.104260780969   109.22136068   120.68740039
 H      2   1   3     1.100766232259   110.19900186   238.08985160
 H      4   3   2     1.100379110716   109.01340268   184.24259094
 H      4   3   2     1.103863844205   107.81024599    68.24568445
 H      6   1   2     1.104295283991   108.66879765   176.52250420
 H      6   1   2     1.100622378557   109.72015184    59.92276528
 H      8   7   6     1.104160012994   108.40660058   291.15087213
 H      8   7   6     1.100850143089   108.48075786   174.85574098
 H     10   5   4     1.098690054716   110.51306512   301.28404530
 H     10   5   4     1.099369159215   110.47456162    61.55471430
 H     10   5   4     1.098553651465   110.38621164   181.87721848
 H     11   1   2     1.099477795451   110.49788177   297.71121176
 H     11   1   2     1.098676981466   110.43998325    58.00489754
 H     11   1   2     1.098493381715   110.47571266   177.40142948
 H     13   7   6     1.098694825695   107.99311119   161.31359825
 H     13   7   6     1.100583302349   109.84035099    43.25276955
 H     14   3   2     1.100719302479   109.91344742   278.33547425
 H     14   3   2     1.098991103216   107.93826225    36.34712990
 H     16  15  13     1.092274914499   119.85331857     7.90579779
 H     17  16  15     1.092272352490   119.49426476   179.98456739
 H     18  17  16     1.091567014610   120.13808402   179.96704753
 H     19  18  17     1.091137443671   119.62760877   183.43433301
 H     20  19  18     1.102034908923   119.54161446   192.14591208
 H     22  21  14     1.101660247436   119.49471905   341.31067971
 H     23  22  21     1.090710529152   120.33931885   177.54501772
 H     24  23  22     1.091643810301   119.96166793   179.73844826
 H     25  24  23     1.092246417228   119.81344084   179.32188290
 H     26  25  24     1.092187786072   120.33111796   180.75307856

---------------------------
INTERNAL COORDINATES (A.U.)
---------------------------
 C      0   0   0     0.000000000000     0.00000000     0.00000000
 C      1   0   0     2.896296901394     0.00000000     0.00000000
 N      2   1   0     2.779615016312   113.12198373     0.00000000
 C      3   2   1     2.789232119363   111.87694140    53.14558776
 C      4   3   2     2.898539145845   114.26896802   307.28913817
 C      1   2   3     2.898756240335   112.21815430    60.51849977
 N      6   1   2     2.786073590796   114.31636320   297.19689815
 C      7   6   1     2.778799123765   112.39171710   307.97529347
 C      5   4   3     2.874619790920   106.99840848    54.91319146
 C      5   4   3     2.869973579327   109.13468194   176.22884588
 C      1   2   3     2.871119354348   109.32428061   181.66972747
 O      9   5   4     2.276454842221   124.26650049   120.69554297
 C      7   6   1     2.803540844944   111.05699424   181.48937685
 C      3   2   1     2.804748792147   111.64681274   178.06343124
 C     13   7   6     2.832905040199   106.71629900   280.55877110
 C     15  13   7     2.633455091299   122.51727742    98.65647589
 C     16  15  13     2.637884743832   120.00075080   188.22153964
 C     17  16  15     2.640396318597   120.70804727     0.47692543
 C     18  17  16     2.626714959310   119.85095427   358.72377782
 C     19  18  17     2.658016229206   120.04930581     1.26823342
 C     14   3   2     2.832146417201   106.80850045   155.46967541
 C     21  14   3     2.668670607448   117.56293848   285.48990657
 C     22  21  14     2.656807403077   119.95977181   172.49273531
 C     23  22  21     2.625803876553   119.92964386   359.87375211
 C     24  23  22     2.642221590955   119.92533759     0.83515410
 C     25  24  23     2.635949188538   120.64647873   358.97853058
 Cu     3   2   1     3.820280883229   110.58809844   291.57351069
 H      2   1   3     2.086750456461   109.22136068   120.68740039
 H      2   1   3     2.080146716438   110.19900186   238.08985160
 H      4   3   2     2.079415162741   109.01340268   184.24259094
 H      4   3   2     2.086000354684   107.81024599    68.24568445
 H      6   1   2     2.086815657724   108.66879765   176.52250420
 H      6   1   2     2.079874872338   109.72015184    59.92276528
 H      8   7   6     2.086560032585   108.40660058   291.15087213
 H      8   7   6     2.080305284926   108.48075786   174.85574098
 H     10   5   4     2.076223309475   110.51306512   301.28404530
 H     10   5   4     2.077506630996   110.47456162    61.55471430
 H     10   5   4     2.075965544687   110.38621164   181.87721848
 H     11   1   2     2.077711923729   110.49788177   297.71121176
 H     11   1   2     2.076198604615   110.43998325    58.00489754
 H     11   1   2     2.075851651367   110.47571266   177.40142948
 H     13   7   6     2.076232325321   107.99311119   161.31359825
 H     13   7   6     2.079801029007   109.84035099    43.25276955
 H     14   3   2     2.080058032006   109.91344742   278.33547425
 H     14   3   2     2.076792208693   107.93826225    36.34712990
 H     16  15  13     2.064100451355   119.85331857     7.90579779
 H     17  16  15     2.064095609860   119.49426476   179.98456739
 H     18  17  16     2.062762714435   120.13808402   179.96704753
 H     19  18  17     2.061950943005   119.62760877   183.43433301
 H     20  19  18     2.082544167886   119.54161446   192.14591208
 H     22  21  14     2.081836160282   119.49471905   341.31067971
 H     23  22  21     2.061144191482   120.33931885   177.54501772
 H     24  23  22     2.062907837260   119.96166793   179.73844826
 H     25  24  23     2.064046599317   119.81344084   179.32188290
 H     26  25  24     2.063935802489   120.33111796   180.75307856

---------------------
BASIS SET INFORMATION
---------------------
There are 5 groups of distinct atoms

 Group   1 Type C   : 7s4p1d contracted to 3s2p1d pattern {511/31/1}
 Group   2 Type N   : 7s4p1d contracted to 3s2p1d pattern {511/31/1}
 Group   3 Type O   : 7s4p1d contracted to 3s2p1d pattern {511/31/1}
 Group   4 Type Cu  : 14s9p5d1f contracted to 5s3p2d1f pattern {63311/531/41/1}
 Group   5 Type H   : 4s1p contracted to 2s1p pattern {31/1}

Atom   0C    basis set group =>   1
Atom   1C    basis set group =>   1
Atom   2N    basis set group =>   2
Atom   3C    basis set group =>   1
Atom   4C    basis set group =>   1
Atom   5C    basis set group =>   1
Atom   6N    basis set group =>   2
Atom   7C    basis set group =>   1
Atom   8C    basis set group =>   1
Atom   9C    basis set group =>   1
Atom  10C    basis set group =>   1
Atom  11O    basis set group =>   3
Atom  12C    basis set group =>   1
Atom  13C    basis set group =>   1
Atom  14C    basis set group =>   1
Atom  15C    basis set group =>   1
Atom  16C    basis set group =>   1
Atom  17C    basis set group =>   1
Atom  18C    basis set group =>   1
Atom  19C    basis set group =>   1
Atom  20C    basis set group =>   1
Atom  21C    basis set group =>   1
Atom  22C    basis set group =>   1
Atom  23C    basis set group =>   1
Atom  24C    basis set group =>   1
Atom  25C    basis set group =>   1
Atom  26Cu   basis set group =>   4
Atom  27H    basis set group =>   5
Atom  28H    basis set group =>   5
Atom  29H    basis set group =>   5
Atom  30H    basis set group =>   5
Atom  31H    basis set group =>   5
Atom  32H    basis set group =>   5
Atom  33H    basis set group =>   5
Atom  34H    basis set group =>   5
Atom  35H    basis set group =>   5
Atom  36H    basis set group =>   5
Atom  37H    basis set group =>   5
Atom  38H    basis set group =>   5
Atom  39H    basis set group =>   5
Atom  40H    basis set group =>   5
Atom  41H    basis set group =>   5
Atom  42H    basis set group =>   5
Atom  43H    basis set group =>   5
Atom  44H    basis set group =>   5
Atom  45H    basis set group =>   5
Atom  46H    basis set group =>   5
Atom  47H    basis set group =>   5
Atom  48H    basis set group =>   5
Atom  49H    basis set group =>   5
Atom  50H    basis set group =>   5
Atom  51H    basis set group =>   5
Atom  52H    basis set group =>   5
Atom  53H    basis set group =>   5
Atom  54H    basis set group =>   5


           ************************************************************
           *        Program running with 2 parallel MPI-processes     *
           *              working on a common directory               *
           ************************************************************
------------------------------------------------------------------------------
                           ORCA GTO INTEGRAL CALCULATION
------------------------------------------------------------------------------

                         BASIS SET STATISTICS AND STARTUP INFO

 # of primitive gaussian shells          ...  481
 # of primitive gaussian functions       ...  893
 # of contracted shells                  ...  251
 # of contracted basis functions         ...  535
 Highest angular momentum                ...    3
 Maximum contraction depth               ...    6
 Integral package used                   ... LIBINT
 Integral threshhold            Thresh   ...  2.500e-11
 Primitive cut-off              TCut     ...  2.500e-12


------------------------------ INTEGRAL EVALUATION ----------------------------


 * One electron integrals 
 Pre-screening matrix                    ... done
 Shell pair data                         ... done (   0.008 sec)

Timings:
 Total evaluation time               ...     0.013 sec (   0.000 min)
 One electron matrix time            ...     0.177 sec (   0.003 min) =1361.5%
 Schwartz matrix evaluation time     ...     0.229 sec (   0.004 min) =1761.5%



           ************************************************************
           *        Program running with 2 parallel MPI-processes     *
           *              working on a common directory               *
           ************************************************************
-------------------------------------------------------------------------------
                                 ORCA SCF
-------------------------------------------------------------------------------

------------
SCF SETTINGS
------------
Hamiltonian:
 Density Functional     Method          .... DFT(GTOs)
 Exchange Functional    Exchange        .... PBE
   PBE kappa parameter   XKappa         ....  0.804000
   PBE mue parameter    XMuePBE         ....  0.219520
 Correlation Functional Correlation     .... PBE
   PBE beta parameter  CBetaPBE         ....  0.066725
 LDA part of GGA corr.  LDAOpt          .... PW91-LDA
 Gradients option       PostSCFGGA      .... off
 Hybrid DFT is turned on
   Fraction HF Exchange ScalHFX         ....  0.250000
   Scaling of DF-GGA-X  ScalDFX         ....  0.750000
   Scaling of DF-GGA-C  ScalDFC         ....  1.000000
   Scaling of DF-LDA-C  ScalLDAC        ....  1.000000
   Perturbative correction              ....  0.000000
   Density functional embedding theory  .... OFF
   NL short-range parameter             ....  6.900000


General Settings:
 Integral files         IntName         .... CuL
 Hartree-Fock type      HFTyp           .... UHF
 Total Charge           Charge          ....    2
 Multiplicity           Mult            ....    2
 Number of Electrons    NEL             ....  215
 Basis Dimension        Dim             ....  535
 Nuclear Repulsion      ENuc            ....   3363.5537547493 Eh

Convergence Acceleration:
 DIIS                   CNVDIIS         .... on
   Start iteration      DIISMaxIt       ....    12
   Startup error        DIISStart       ....  0.200000
   # of expansion vecs  DIISMaxEq       ....     5
   Bias factor          DIISBfac        ....   1.050
   Max. coefficient     DIISMaxC        ....  10.000
 Newton-Raphson         CNVNR           .... off
 SOSCF                  CNVSOSCF        .... off
 Level Shifting         CNVShift        .... on
   Level shift para.    LevelShift      ....    0.2500
   Turn off err/grad.   ShiftErr        ....    0.0010
 Zerner damping         CNVZerner       .... off
 Static damping         CNVDamp         .... on
   Fraction old density DampFac         ....    0.7000
   Max. Damping (<1)    DampMax         ....    0.9800
   Min. Damping (>=0)   DampMin         ....    0.0000
   Turn off err/grad.   DampErr         ....    0.1000
 Fernandez-Rico         CNVRico         .... off

SCF Procedure:
 Maximum # iterations   MaxIter         ....   125
 SCF integral mode      SCFMode         .... Direct
   Integral package                     .... LIBINT
 Reset frequency        DirectResetFreq ....    20
 Integral Threshold     Thresh          ....  2.500e-11 Eh
 Primitive CutOff       TCut            ....  2.500e-12 Eh

Convergence Tolerance:
 Convergence Check Mode ConvCheckMode   .... Total+1el-Energy
 Convergence forced     ConvForced      .... 0
 Energy Change          TolE            ....  1.000e-08 Eh
 1-El. energy change                    ....  1.000e-05 Eh
 DIIS Error             TolErr          ....  5.000e-07


Diagonalization of the overlap matrix:
Smallest eigenvalue                        ... 2.495e-04
Time for diagonalization                   ...    0.096 sec
Threshold for overlap eigenvalues          ... 1.000e-08
Number of eigenvalues below threshold      ... 0
Time for construction of square roots      ...    0.072 sec
Total time needed                          ...    0.170 sec

-------------------
DFT GRID GENERATION
-------------------

General Integration Accuracy     IntAcc      ...  4.670
Radial Grid Type                 RadialGrid  ... Gauss-Chebyshev
Angular Grid (max. acc.)         AngularGrid ... Lebedev-302
Angular grid pruning method      GridPruning ... 3 (G Style)
Weight generation scheme         WeightScheme... Becke
Basis function cutoff            BFCut       ...    1.0000e-11
Integration weight cutoff        WCut        ...    1.0000e-14
Grids for H and He will be reduced by one unit

# of grid points (after initial pruning)     ... 266100 (   0.1 sec)
# of grid points (after weights+screening)   ... 223318 (   1.6 sec)
nearest neighbour list constructed           ...    0.0 sec
Grid point re-assignment to atoms done       ...    0.0 sec
Grid point division into batches done        ...    0.6 sec
Reduced shell lists constructed in    2.9 sec

Total number of grid points                  ...   223318
Total number of batches                      ...     3520
Average number of points per batch           ...       63
Average number of grid points per atom       ...     4060
Average number of shells per batch           ...   134.14 (53.44%)
Average number of basis functions per batch  ...   264.93 (49.52%)
Average number of large shells per batch     ...    86.65 (64.59%)
Average number of large basis fcns per batch ...   170.76 (64.45%)
Maximum spatial batch extension              ...  13.98, 17.53, 18.70 au
Average spatial batch extension              ...   0.68,  0.71,  0.69 au

Time for grid setup =    5.016 sec

------------------------------
INITIAL GUESS: MODEL POTENTIAL
------------------------------
Loading Hartree-Fock densities                     ... done
Calculating cut-offs                               ... done
Setting up the integral package                    ... done
Initializing the effective Hamiltonian             ... done
Starting the Coulomb interaction                   ... done (   1.0 sec)
Reading the grid                                   ... done
Mapping shells                                     ... done
Starting the XC term evaluation                    ... done (   3.5 sec)
  promolecular density results
     # of electrons  =    216.987337989
     EX              =   -212.864713396
     EC              =     -7.746883532
     EX+EC           =   -220.611596928
Transforming the Hamiltonian                       ... done (   0.1 sec)
Diagonalizing the Hamiltonian                      ... done (   0.1 sec)
Back transforming the eigenvectors                 ... done (   0.0 sec)
Now organizing SCF variables                       ... done
                      ------------------
                      INITIAL GUESS DONE (  10.0 sec)
                      ------------------

--------------------
CPCM SOLVATION MODEL
--------------------
CPCM parameters:
  Epsilon                                         ...      80.4000
  Refrac                                          ...       1.3300
  Rsolv                                           ...       1.3000
  Surface type                                    ...    GEPOL SES
  Epsilon function type                           ...         CPCM
Radii:
 Radius for C  used is    3.7795 Bohr (=   2.0000 Ang.)
 Radius for N  used is    3.4582 Bohr (=   1.8300 Ang.)
 Radius for O  used is    3.2503 Bohr (=   1.7200 Ang.)
 Radius for Cu used is    4.2009 Bohr (=   2.2230 Ang.)
 Radius for H  used is    2.4566 Bohr (=   1.3000 Ang.)
Calculating surface                               ...        done! (  0.2s)
[...]
      px      :     0.001221
      py      :     0.027925
      dz2     :    -0.000040  d :    -0.000724
      dxz     :    -0.000080
      dyz     :    -0.000034
      dx2y2   :    -0.000096
      dxy     :    -0.000474
 15 C s       :    -0.000978  s :    -0.000978
      pz      :    -0.001275  p :    -0.019465
      px      :    -0.000939
      py      :    -0.017251
      dz2     :     0.000101  d :     0.001462
      dxz     :     0.000124
      dyz     :     0.000456
      dx2y2   :     0.000087
      dxy     :     0.000694
 16 C s       :     0.001592  s :     0.001592
      pz      :     0.001979  p :     0.043310
      px      :     0.000904
      py      :     0.040426
      dz2     :    -0.000113  d :    -0.000689
      dxz     :    -0.000063
      dyz     :    -0.000301
      dx2y2   :    -0.000124
      dxy     :    -0.000088
 17 C s       :    -0.000677  s :    -0.000677
      pz      :    -0.000971  p :    -0.012508
      px      :    -0.000730
      py      :    -0.010807
      dz2     :     0.000060  d :     0.001217
      dxz     :     0.000068
      dyz     :     0.000225
      dx2y2   :     0.000063
      dxy     :     0.000801
 18 C s       :     0.000831  s :     0.000831
      pz      :     0.000610  p :     0.025772
      px      :     0.000593
      py      :     0.024569
      dz2     :    -0.000067  d :    -0.000176
      dxz     :     0.000008
      dyz     :     0.000103
      dx2y2   :    -0.000013
      dxy     :    -0.000207
 19 C s       :     0.000388  s :     0.000388
      pz      :    -0.000117  p :     0.003726
      px      :     0.002983
      py      :     0.000859
      dz2     :     0.000042  d :     0.001197
      dxz     :     0.000075
      dyz     :     0.000353
      dx2y2   :     0.000082
      dxy     :     0.000644
 20 C s       :     0.001545  s :     0.001545
      pz      :     0.020257  p :     0.031745
      px      :     0.002065
      py      :     0.009422
      dz2     :    -0.000027  d :    -0.000719
      dxz     :    -0.000307
      dyz     :    -0.000100
      dx2y2   :    -0.000090
      dxy     :    -0.000195
 21 C s       :     0.000396  s :     0.000396
      pz      :     0.000398  p :     0.003718
      px      :     0.004037
      py      :    -0.000717
      dz2     :     0.000263  d :     0.001196
      dxz     :     0.000569
      dyz     :    -0.000010
      dx2y2   :     0.000140
      dxy     :     0.000235
 22 C s       :     0.000830  s :     0.000830
      pz      :     0.014191  p :     0.025770
      px      :     0.000706
      py      :     0.010873
      dz2     :    -0.000024  d :    -0.000175
      dxz     :    -0.000067
      dyz     :    -0.000093
      dx2y2   :     0.000148
      dxy     :    -0.000140
 23 C s       :    -0.000676  s :    -0.000676
      pz      :    -0.007123  p :    -0.012512
      px      :    -0.000818
      py      :    -0.004571
      dz2     :     0.000336  d :     0.001215
      dxz     :     0.000333
      dyz     :     0.000041
      dx2y2   :     0.000094
      dxy     :     0.000411
 24 C s       :     0.001588  s :     0.001588
      pz      :     0.025246  p :     0.043200
      px      :     0.001169
      py      :     0.016785
      dz2     :    -0.000251  d :    -0.000687
      dxz     :    -0.000080
      dyz     :    -0.000144
      dx2y2   :    -0.000129
      dxy     :    -0.000084
 25 C s       :    -0.000974  s :    -0.000974
      pz      :    -0.010962  p :    -0.019390
      px      :    -0.001094
      py      :    -0.007334
      dz2     :     0.000206  d :     0.001457
      dxz     :     0.000694
      dyz     :     0.000088
      dx2y2   :     0.000223
      dxy     :     0.000246
 26 Cus       :    -0.015480  s :    -0.015480
      pz      :    -0.005136  p :     0.000052
      px      :    -0.001722
      py      :     0.006910
      dz2     :     0.108249  d :     0.458283
      dxz     :     0.075517
      dyz     :     0.215218
      dx2y2   :     0.054873
      dxy     :     0.004426
      f0      :     0.000007  f :     0.000022
      f+1     :     0.000004
      f-1     :     0.000001
      f+2     :     0.000003
      f-2     :    -0.000000
      f+3     :     0.000002
      f-3     :     0.000005
 27 H s       :     0.012552  s :     0.012552
      pz      :    -0.000037  p :    -0.000268
      px      :     0.000056
      py      :    -0.000287
 28 H s       :     0.002700  s :     0.002700
      pz      :    -0.000062  p :    -0.000118
      px      :    -0.000054
      py      :    -0.000002
 29 H s       :     0.001870  s :     0.001870
      pz      :    -0.000071  p :    -0.000126
      px      :    -0.000045
      py      :    -0.000010
 30 H s       :     0.009462  s :     0.009462
      pz      :    -0.000080  p :    -0.000273
      px      :    -0.000039
      py      :    -0.000154
 31 H s       :     0.009496  s :     0.009496
      pz      :    -0.000173  p :    -0.000274
      px      :    -0.000067
      py      :    -0.000033
 32 H s       :     0.001867  s :     0.001867
      pz      :    -0.000061  p :    -0.000127
      px      :    -0.000030
      py      :    -0.000036
 33 H s       :     0.012548  s :     0.012548
      pz      :    -0.000263  p :    -0.000268
      px      :     0.000047
      py      :    -0.000052
 34 H s       :     0.002689  s :     0.002689
      pz      :    -0.000057  p :    -0.000117
      px      :    -0.000059
      py      :    -0.000002
 35 H s       :    -0.000005  s :    -0.000005
      pz      :    -0.000005  p :    -0.000002
      px      :    -0.000003
      py      :     0.000007
 36 H s       :    -0.000015  s :    -0.000015
      pz      :     0.000000  p :     0.000005
      px      :    -0.000004
      py      :     0.000009
 37 H s       :     0.000018  s :     0.000018
      pz      :     0.000002  p :     0.000002
      px      :     0.000001
      py      :    -0.000001
 38 H s       :    -0.000015  s :    -0.000015
      pz      :     0.000002  p :     0.000005
      px      :    -0.000004
      py      :     0.000007
 39 H s       :     0.000018  s :     0.000018
      pz      :    -0.000002  p :     0.000002
      px      :    -0.000001
      py      :     0.000006
 40 H s       :    -0.000005  s :    -0.000005
      pz      :     0.000005  p :    -0.000002
      px      :    -0.000004
      py      :    -0.000003
 41 H s       :     0.000975  s :     0.000975
      pz      :    -0.000035  p :    -0.000053
      px      :    -0.000033
      py      :     0.000016
 42 H s       :     0.005798  s :     0.005798
      pz      :    -0.000052  p :    -0.000125
      px      :    -0.000059
      py      :    -0.000014
 43 H s       :     0.005836  s :     0.005836
      pz      :     0.000034  p :    -0.000126
      px      :    -0.000043
      py      :    -0.000117
 44 H s       :     0.000992  s :     0.000992
      pz      :    -0.000021  p :    -0.000053
      px      :    -0.000034
      py      :     0.000003
 45 H s       :     0.000603  s :     0.000603
      pz      :    -0.000055  p :    -0.000505
      px      :    -0.000050
      py      :    -0.000400
 46 H s       :    -0.001332  s :    -0.001332
      pz      :     0.000038  p :     0.001047
      px      :     0.000169
      py      :     0.000840
 47 H s       :     0.000403  s :     0.000403
      pz      :    -0.000049  p :    -0.000321
      px      :    -0.000029
      py      :    -0.000243
 48 H s       :    -0.000733  s :    -0.000733
      pz      :     0.000072  p :     0.000578
      px      :     0.000033
      py      :     0.000474
 49 H s       :     0.002295  s :     0.002295
      pz      :    -0.000065  p :    -0.000478
      px      :    -0.000001
      py      :    -0.000412
 50 H s       :     0.002337  s :     0.002337
      pz      :    -0.000314  p :    -0.000480
      px      :    -0.000043
      py      :    -0.000123
 51 H s       :    -0.000730  s :    -0.000730
      pz      :     0.000301  p :     0.000578
      px      :     0.000024
      py      :     0.000253
 52 H s       :     0.000404  s :     0.000404
      pz      :    -0.000159  p :    -0.000321
      px      :    -0.000036
      py      :    -0.000125
 53 H s       :    -0.001329  s :    -0.001329
      pz      :     0.000519  p :     0.001044
      px      :     0.000176
      py      :     0.000350
 54 H s       :     0.000602  s :     0.000602
      pz      :    -0.000249  p :    -0.000503
      px      :    -0.000045
      py      :    -0.000209


                      *****************************
                      * MAYER POPULATION ANALYSIS *
                      *****************************

  NA   - Mulliken gross atomic population
  ZA   - Total nuclear charge
  QA   - Mulliken gross atomic charge
  VA   - Mayer's total valence
  BVA  - Mayer's bonded valence
  FA   - Mayer's free valence

  ATOM       NA         ZA         QA         VA         BVA        FA
  0 C      6.4436     6.0000    -0.4436     3.9495     3.9495     0.0000
  1 C      5.7955     6.0000     0.2045     3.7443     3.7443     0.0001
  2 N      7.5366     7.0000    -0.5366     3.2534     3.2236     0.0298
  3 C      5.8165     6.0000     0.1835     3.7340     3.7339     0.0001
  4 C      6.4430     6.0000    -0.4430     3.9487     3.9487     0.0000
  5 C      5.8168     6.0000     0.1832     3.7341     3.7340     0.0001
  6 N      7.5359     7.0000    -0.5359     3.2529     3.2230     0.0299
  7 C      5.7959     6.0000     0.2041     3.7443     3.7442     0.0001
  8 C      5.7819     6.0000     0.2181     3.9252     3.9252     0.0000
  9 C      5.9474     6.0000     0.0526     3.9511     3.9511     0.0000
 10 C      5.9475     6.0000     0.0525     3.9510     3.9510     0.0000
 11 O      8.2126     8.0000    -0.2126     2.3038     2.3038     0.0000
 12 C      5.7689     6.0000     0.2311     3.7785     3.7784     0.0001
 13 C      5.7675     6.0000     0.2325     3.7776     3.7776     0.0001
 14 C      6.1425     6.0000    -0.1425     3.8948     3.8935     0.0012
 15 C      5.9932     6.0000     0.0068     3.8889     3.8884     0.0005
 16 C      5.9859     6.0000     0.0141     3.8349     3.8328     0.0022
 17 C      6.0143     6.0000    -0.0143     3.8626     3.8624     0.0002
 18 C      5.9587     6.0000     0.0413     3.8224     3.8216     0.0008
 19 C      6.1727     6.0000    -0.1727     3.8194     3.8191     0.0003
 20 C      6.1447     6.0000    -0.1447     3.8992     3.8979     0.0012
 21 C      6.1718     6.0000    -0.1718     3.8190     3.8187     0.0003
 22 C      5.9591     6.0000     0.0409     3.8230     3.8222     0.0008
 23 C      6.0144     6.0000    -0.0144     3.8623     3.8621     0.0002
 24 C      5.9861     6.0000     0.0139     3.8329     3.8307     0.0022
 25 C      5.9929     6.0000     0.0071     3.8878     3.8874     0.0005
 26 Cu    28.4530    29.0000     0.5470     2.5219     2.2874     0.2344
 27 H      0.8966     1.0000     0.1034     0.9918     0.9916     0.0003
 28 H      0.8837     1.0000     0.1163     0.9915     0.9915     0.0000
 29 H      0.8855     1.0000     0.1145     0.9991     0.9991     0.0000
 30 H      0.8988     1.0000     0.1012     0.9948     0.9947     0.0002
 31 H      0.8982     1.0000     0.1018     0.9946     0.9944     0.0002
 32 H      0.8857     1.0000     0.1143     0.9992     0.9992     0.0000
 33 H      0.8960     1.0000     0.1040     0.9918     0.9915     0.0003
 34 H      0.8840     1.0000     0.1160     0.9915     0.9915     0.0000
 35 H      0.9302     1.0000     0.0698     0.9965     0.9965     0.0000
 36 H      0.9298     1.0000     0.0702     0.9894     0.9894     0.0000
 37 H      0.9302     1.0000     0.0698     0.9965     0.9965     0.0000
 38 H      0.9297     1.0000     0.0703     0.9895     0.9895     0.0000
 39 H      0.9301     1.0000     0.0699     0.9964     0.9964     0.0000
 40 H      0.9304     1.0000     0.0696     0.9966     0.9966     0.0000
 41 H      0.8813     1.0000     0.1187     0.9883     0.9883     0.0000
 42 H      0.8974     1.0000     0.1026     0.9934     0.9933     0.0001
 43 H      0.8975     1.0000     0.1025     0.9933     0.9933     0.0001
 44 H      0.8813     1.0000     0.1187     0.9882     0.9882     0.0000
 45 H      0.9302     1.0000     0.0698     0.9902     0.9902     0.0000
 46 H      0.9227     1.0000     0.0773     0.9796     0.9796     0.0000
 47 H      0.9267     1.0000     0.0733     0.9809     0.9809     0.0000
 48 H      0.9131     1.0000     0.0869     0.9844     0.9844     0.0000
 49 H      0.8744     1.0000     0.1256     0.9890     0.9890     0.0000
 50 H      0.8744     1.0000     0.1256     0.9889     0.9889     0.0000
 51 H      0.9133     1.0000     0.0867     0.9846     0.9846     0.0000
 52 H      0.9269     1.0000     0.0731     0.9809     0.9809     0.0000
 53 H      0.9228     1.0000     0.0772     0.9796     0.9796     0.0000
 54 H      0.9298     1.0000     0.0702     0.9901     0.9901     0.0000

  Mayer bond orders larger than 0.100000
B(  0-C ,  1-C ) :   0.9840 B(  0-C ,  5-C ) :   0.9846 B(  0-C ,  8-C ) :   0.8725 
B(  0-C , 10-C ) :   1.0776 B(  1-C ,  2-N ) :   0.8536 B(  1-C , 27-H ) :   0.9228 
B(  1-C , 28-H ) :   0.9393 B(  2-N ,  3-C ) :   0.8477 B(  2-N , 13-C ) :   0.8742 
B(  2-N , 26-Cu) :   0.5402 B(  3-C ,  4-C ) :   0.9841 B(  3-C , 29-H ) :   0.9317 
B(  3-C , 30-H ) :   0.9223 B(  4-C ,  7-C ) :   0.9841 B(  4-C ,  8-C ) :   0.8723 
B(  4-C ,  9-C ) :   1.0779 B(  5-C ,  6-N ) :   0.8479 B(  5-C , 31-H ) :   0.9219 
B(  5-C , 32-H ) :   0.9316 B(  6-N ,  7-C ) :   0.8532 B(  6-N , 12-C ) :   0.8742 
B(  6-N , 26-Cu) :   0.5405 B(  7-C , 33-H ) :   0.9226 B(  7-C , 34-H ) :   0.9397 
B(  8-C , 11-O ) :   2.2249 B(  9-C , 35-H ) :   0.9533 B(  9-C , 36-H ) :   0.9556 
B(  9-C , 37-H ) :   0.9533 B( 10-C , 38-H ) :   0.9556 B( 10-C , 39-H ) :   0.9533 
B( 10-C , 40-H ) :   0.9534 B( 12-C , 14-C ) :   1.0240 B( 12-C , 41-H ) :   0.9307 
B( 12-C , 42-H ) :   0.9209 B( 13-C , 20-C ) :   1.0240 B( 13-C , 43-H ) :   0.9208 
B( 13-C , 44-H ) :   0.9305 B( 14-C , 15-C ) :   1.4231 B( 14-C , 19-C ) :   1.2282 
B( 15-C , 16-C ) :   1.3706 B( 15-C , 45-H ) :   0.9854 B( 16-C , 17-C ) :   1.3567 
B( 16-C , 46-H ) :   0.9837 B( 17-C , 18-C ) :   1.4293 B( 17-C , 47-H ) :   0.9888 
B( 18-C , 19-C ) :   1.2753 B( 18-C , 48-H ) :   0.9744 B( 19-C , 26-Cu) :   0.3195 
B( 19-C , 49-H ) :   0.9068 B( 20-C , 21-C ) :   1.2301 B( 20-C , 25-C ) :   1.4242 
B( 21-C , 22-C ) :   1.2761 B( 21-C , 26-Cu) :   0.3177 B( 21-C , 50-H ) :   0.9061 
B( 22-C , 23-C ) :   1.4293 B( 22-C , 51-H ) :   0.9745 B( 23-C , 24-C ) :   1.3568 
B( 23-C , 52-H ) :   0.9888 B( 24-C , 25-C ) :   1.3694 B( 24-C , 53-H ) :   0.9837 
B( 25-C , 54-H ) :   0.9855 

-------
TIMINGS
-------

Total SCF time: 0 days 0 hours 11 min 33 sec 

Total time                  ....     693.777 sec
Sum of individual times     ....     691.366 sec  ( 99.7%)

Fock matrix formation       ....     662.237 sec  ( 95.5%)
  XC integration            ....      75.917 sec  ( 11.5% of F)
    Basis function eval.    ....      10.733 sec  ( 14.1% of XC)
    Density eval.           ....      45.307 sec  ( 59.7% of XC)
    XC-Functional eval.     ....       1.231 sec  (  1.6% of XC)
    XC-Potential eval.      ....      16.315 sec  ( 21.5% of XC)
Diagonalization             ....       5.437 sec  (  0.8%)
Density matrix formation    ....       0.141 sec  (  0.0%)
Population analysis         ....       0.843 sec  (  0.1%)
Initial guess               ....       0.590 sec  (  0.1%)
Orbital Transformation      ....       0.000 sec  (  0.0%)
Orbital Orthonormalization  ....       0.547 sec  (  0.1%)
DIIS solution               ....       2.343 sec  (  0.3%)
Grid generation             ....      19.775 sec  (  2.9%)


-------------------------------------------------------------------------------
                          DFT DISPERSION CORRECTION                            
                                                                               
                              DFTD3 V3.1  Rev 1                                
                          USING Becke-Johnson damping                          
-------------------------------------------------------------------------------
The PBE0 functional is recognized
Active option DFTDOPT                   ...         4   

molecular C6(AA) [au] = 32176.295413 


            DFT-D V3
 parameters
 s6 scaling factor         :     1.0000 
 a1 scaling factor         :     0.4145 
 s8 scaling factor         :     1.2177 
 a2 scaling factor         :     4.8593 
 ad hoc parameters k1-k3   :    16.0000     1.3333    -4.0000 

 Edisp/kcal,au: -51.945721825088  -0.082780768149 
 E6   /kcal   : -32.350524075 
 E8   /kcal   : -19.595197750 
 % E8         :  37.722447704 

-------------------------   ----------------
Dispersion correction           -0.082780768
-------------------------   ----------------


-------------------------   --------------------
FINAL SINGLE POINT ENERGY     -2715.867101214185
-------------------------   --------------------

                                *** OPTIMIZATION RUN DONE ***

                            ***************************************
                            *     ORCA property calculations      *
                            ***************************************

                                    ---------------------
                                    Active property flags
                                    ---------------------
   (+) Dipole Moment


------------------------------------------------------------------------------
                       ORCA ELECTRIC PROPERTIES CALCULATION
------------------------------------------------------------------------------

Dipole Moment Calculation                       ... on
Quadrupole Moment Calculation                   ... off
Polarizability Calculation                      ... off
GBWName                                         ... CuL.gbw
Electron density file                           ... CuL.scfp
The origin for moment calculation is the CENTER OF MASS  = ( 0.009681,  0.160004 -0.544523)

-------------
DIPOLE MOMENT
-------------
                                X             Y             Z
Electronic contribution:      1.03235       4.97266     -12.64302
Nuclear contribution   :     -0.88514      -4.23347      10.74950
                        -----------------------------------------
Total Dipole Moment    :      0.14722       0.73919      -1.89352
                        -----------------------------------------
Magnitude (a.u.)       :      2.03801
Magnitude (Debye)      :      5.18021



--------------------
Rotational spectrum 
--------------------
 
Rotational constants in cm-1:     0.008343     0.006741     0.004619 
Rotational constants in MHz :   250.110126   202.093068   138.483883 

 Dipole components along the rotational axes: 
x,y,z [a.u.] :    -2.037959     0.014043     0.002628 
x,y,z [Debye]:    -5.180081     0.035694     0.006679 

 

Timings for individual modules:

Sum of individual times         ...    26037.242 sec (= 433.954 min)
GTO integral calculation        ...       16.059 sec (=   0.268 min)   0.1 %
SCF iterations                  ...    17871.568 sec (= 297.859 min)  68.6 %
SCF Gradient evaluation         ...     8111.023 sec (= 135.184 min)  31.2 %
Geometry relaxation             ...       38.592 sec (=   0.643 min)   0.1 %
                             ****ORCA TERMINATED NORMALLY****
TOTAL RUN TIME: 0 days 7 hours 14 minutes 24 seconds 442 msec
