
                                 *****************
                                 * O   R   C   A *
                                 *****************

           --- An Ab Initio, DFT and Semiempirical electronic structure package ---

                  #######################################################
                  #                        -***-                        #
                  #          Department of theory and spectroscopy      #
                  #               Directorship: Frank Neese             #
                  #        Max Planck Institute fuer Kohlenforschung    #
                  #                Kaiser Wilhelm Platz 1               #
                  #                 D-45470 Muelheim/Ruhr               #
                  #                      Germany                        #
                  #                                                     #
                  #                  All rights reserved                #
                  #                        -***-                        #
                  #######################################################


                         Program Version 4.2.0 -  RELEASE  -


 With contributions from (in alphabetic order):
   Daniel Aravena         : Magnetic Suceptibility
   Michael Atanasov       : Ab Initio Ligand Field Theory (pilot matlab implementation)
   Alexander A. Auer      : GIAO ZORA, VPT2
   Ute Becker             : Parallelization
   Giovanni Bistoni       : ED, misc. LED, open-shell LED, HFLED
   Martin Brehm           : Molecular dynamics
   Dmytro Bykov           : SCF Hessian
   Vijay G. Chilkuri      : MRCI spin determinant printing, contributions to CSF-ICE
   Dipayan Datta          : RHF DLPNO-CCSD density
   Achintya Kumar Dutta   : EOM-CC, STEOM-CC
   Dmitry Ganyushin       : Spin-Orbit,Spin-Spin,Magnetic field MRCI
   Miquel Garcia          : C-PCM Hessian, Gaussian charge scheme
   Yang Guo               : DLPNO-NEVPT2, CIM, IAO-localization
   Andreas Hansen         : Spin unrestricted coupled pair/coupled cluster methods
   Benjamin Helmich-Paris : CASSCF linear response (MC-RPA)
   Lee Huntington         : MR-EOM, pCC
   Robert Izsak           : Overlap fitted RIJCOSX, COSX-SCS-MP3, EOM
   Christian Kollmar      : KDIIS, OOCD, Brueckner-CCSD(T), CCSD density
   Simone Kossmann        : Meta GGA functionals, TD-DFT gradient, OOMP2, MP2 Hessian
   Martin Krupicka        : AUTO-CI
   Lucas Lang             : DCDCAS
   Dagmar Lenk            : GEPOL surface, SMD
   Dimitrios Liakos       : Extrapolation schemes; Compound Job, initial MDCI parallelization
   Dimitrios Manganas     : Further ROCIS development; embedding schemes
   Dimitrios Pantazis     : SARC Basis sets
   Taras Petrenko         : DFT Hessian,TD-DFT gradient, ASA, ECA, R-Raman, ABS, FL, XAS/XES, NRVS
   Peter Pinski           : DLPNO-MP2, DLPNO-MP2 Gradient
   Christoph Reimann      : Effective Core Potentials
   Marius Retegan         : Local ZFS, SOC
   Christoph Riplinger    : Optimizer, TS searches, QM/MM, DLPNO-CCSD(T), (RO)-DLPNO pert. Triples
   Tobias Risthaus        : Range-separated hybrids, TD-DFT gradient, RPA, STAB
   Michael Roemelt        : Original ROCIS implementation
   Masaaki Saitow         : Open-shell DLPNO-CCSD energy and density
   Barbara Sandhoefer     : DKH picture change effects
   Avijit Sen             : IP-ROCIS
   Kantharuban Sivalingam : CASSCF convergence, NEVPT2, FIC-MRCI
   Bernardo de Souza      : ESD, SOC TD-DFT
   Georgi Stoychev        : AutoAux, RI-MP2 NMR
   Willem Van den Heuvel  : Paramagnetic NMR
   Boris Wezisla          : Elementary symmetry handling
   Frank Wennmohs         : Technical directorship


 We gratefully acknowledge several colleagues who have allowed us to
 interface, adapt or use parts of their codes:
   Stefan Grimme, W. Hujo, H. Kruse,             : VdW corrections, initial TS optimization,
                  C. Bannwarth                     DFT functionals, gCP, sTDA/sTD-DF
   Ed Valeev, F. Pavosevic, A. Kumar             : LibInt (2-el integral package), F12 methods
   Garnet Chan, S. Sharma, J. Yang, R. Olivares  : DMRG
   Ulf Ekstrom                                   : XCFun DFT Library
   Mihaly Kallay                                 : mrcc  (arbitrary order and MRCC methods)
   Andreas Klamt, Michael Diedenhofen            : otool_cosmo (COSMO solvation model)
   Jiri Pittner, Ondrej Demel                    : Mk-CCSD
   Frank Weinhold                                : gennbo (NPA and NBO analysis)
   Christopher J. Cramer and Donald G. Truhlar   : smd solvation model
   Lars Goerigk                                  : TD-DFT with DH, B97 family of functionals
   V. Asgeirsson, H. Jonsson                     : NEB implementation
   FAccTs GmbH                                   : IRC, NEB, NEB-TS, Multilevel, MM, QM/MM, CI optimization
   S Lehtola, MJT Oliveira, MAL Marques          : LibXC Library


 Your calculation uses the libint2 library for the computation of 2-el integrals
 For citations please refer to: http://libint.valeyev.net

 Your ORCA version has been built with support for libXC version: 4.2.3
 For citations please refer to: https://tddft.org/programs/libxc/

 This ORCA versions uses:
   CBLAS   interface :  Fast vector & matrix operations
   LAPACKE interface :  Fast linear algebra routines
   SCALAPACK package :  Parallel linear algebra routines


Your calculation utilizes the atom-pairwise dispersion correction
with the Becke-Johnson damping scheme (D3BJ)
Cite in your paper:
S.Grimme, S.Ehrlich, L.Goerigk, J Comput Chem, (2011), 32, 1456–1465 
S.Grimme, J.Antony, S.Ehrlich and H.Krieg, J.Chem.Phys., 132, (2010), 154104 
   

----- Orbital basis set information -----
Your calculation utilizes the basis: def2-SVP
   F. Weigend and R. Ahlrichs, Phys. Chem. Chem. Phys. 7, 3297 (2005).

================================================================================
                                        WARNINGS
                       Please study these warnings very carefully!
================================================================================


WARNING: your system is open-shell and RHF/RKS was chosen
  ===> : WILL SWITCH to UHF/UKS


WARNING: Geometry Optimization
  ===> : Switching off AutoStart
         For restart on a previous wavefunction, please use MOREAD

INFO   : the flag for use of LIBINT has been found!

================================================================================
                                       INPUT FILE
================================================================================
NAME = CuLCl2.inp
|  1> ! PBE0 Grid4 D3BJ def2-svp
|  2> ! TightOpt
|  3> ! CPCM(water)
|  4> 
|  5> %pal nprocs 1
|  6> end
|  7> 
|  8> * xyz 0 2
|  9> 6       -0.773059941      1.340185771      0.621770133
| 10> 6        0.733809624      1.055128501      0.563155431
| 11> 7        1.111907138     -0.263384050      1.091958868
| 12> 6        0.319443947     -1.349198939      0.490821749
| 13> 6       -1.198900749     -1.128691553      0.522726648
| 14> 6       -1.324053676      1.337660213      2.054109988
| 15> 7       -1.219305919      0.044882687      2.751086674
| 16> 6       -1.761287846     -1.061474637      1.949182253
| 17> 6       -1.468008427      0.216860429     -0.124682275
| 18> 6       -1.878134593     -2.263576264     -0.226174110
| 19> 6       -1.047393367      2.694916127     -0.010521187
| 20> 8       -2.149358156      0.373685265     -1.109030460
| 21> 6       -1.959954329      0.088466639      4.043853326
| 22> 6        2.563975114     -0.472036290      0.827321041
| 23> 6       -3.429339698      0.383466398      3.911498304
| 24> 6       -4.357882437     -0.665151764      3.861034449
| 25> 6       -5.720303981     -0.404946376      3.727036131
| 26> 6       -6.173590576      0.913045230      3.646054169
| 27> 6       -5.259116234      1.963731549      3.709479729
| 28> 6       -3.896592747      1.701357686      3.845556206
| 29> 6        2.947332129     -0.418535949     -0.626677703
| 30> 6        2.849122090     -1.553712493     -1.439776644
| 31> 6        3.193914837     -1.490855425     -2.789167885
| 32> 6        3.649629452     -0.294691759     -3.342171594
| 33> 6        3.767124691      0.839639555     -2.536869050
| 34> 6        3.420115776      0.775096755     -1.188759966
| 35> 29       0.762615590     -0.297929199      3.103433367
| 36> 1        1.060809395      1.125570758     -0.490249380
| 37> 1        1.282144753      1.816693451      1.139156169
| 38> 1        0.562019442     -2.286353029      1.013203445
| 39> 1        0.625474966     -1.469957870     -0.564658196
| 40> 1       -2.388380269      1.633795324      2.012171731
| 41> 1       -0.794907803      2.096756422      2.648931390
| 42> 1       -2.859455282     -0.952979394      1.886207699
| 43> 1       -1.542979265     -1.999392305      2.482900008
| 44> 1       -1.527584007     -2.304364940     -1.266774112
| 45> 1       -1.658084049     -3.226775010      0.256748385
| 46> 1       -2.967387790     -2.119441708     -0.240935590
| 47> 1       -0.541329959      3.491126747      0.554612753
| 48> 1       -0.685920449      2.717256527     -1.047954819
| 49> 1       -2.126011097      2.904201722     -0.023141406
| 50> 1       -1.465522812      0.855639401      4.654163183
| 51> 1       -1.820336302     -0.891595027      4.532209211
| 52> 1        3.111730719      0.307739733      1.384496944
| 53> 1        2.816857760     -1.449891559      1.258022125
| 54> 1       -4.008156810     -1.698982023      3.931211899
| 55> 1       -6.431213583     -1.234048311      3.689134377
| 56> 1       -7.241716114      1.119644507      3.540658487
| 57> 1       -5.607002560      2.998114613      3.653573249
| 58> 1       -3.182000472      2.525899011      3.902793204
| 59> 1        2.498762245     -2.493104404     -1.005703221
| 60> 1        3.105684295     -2.384816267     -3.411355090
| 61> 1        3.920660395     -0.246155491     -4.399933954
| 62> 1        4.133884924      1.778248452     -2.959629633
| 63> 1        3.521086966      1.664693880     -0.560710733
| 64> 17       2.378930852      1.147378725      3.769733579
| 65> 17       0.563154814     -2.083243034      4.488466320
| 66> **                         ****END OF INPUT****
================================================================================

                       *****************************
                       * Geometry Optimization Run *
                       *****************************

Geometry optimization settings:
Update method            Update   .... BFGS
Choice of coordinates    CoordSys .... Z-matrix Internals
Initial Hessian          InHess   .... Almoef's Model

Convergence Tolerances:
Energy Change            TolE     ....  1.0000e-06 Eh
Max. Gradient            TolMAXG  ....  1.0000e-04 Eh/bohr
RMS Gradient             TolRMSG  ....  3.0000e-05 Eh/bohr
Max. Displacement        TolMAXD  ....  1.0000e-03 bohr
RMS Displacement         TolRMSD  ....  6.0000e-04 bohr
Strict Convergence                ....  False
------------------------------------------------------------------------------
                        ORCA OPTIMIZATION COORDINATE SETUP
------------------------------------------------------------------------------

The optimization will be done in new redundant internal coordinates
Making redundant internal coordinates   ...  (new redundants) done
Evaluating the initial hessian          ...  (Almloef) done
Evaluating the coordinates              ...  done
Calculating the B-matrix                .... done
Calculating the G-matrix                .... done
Diagonalizing the G-matrix              .... done
Small eigenvalue found = 2.691e-03
Small eigenvalue found = 4.776e-03
Small eigenvalue found = 6.744e-03
Small eigenvalue found = 9.510e-03
Small eigenvalue found = 2.402e-02
Small eigenvalue found = 2.504e-02
Small eigenvalue found = 2.789e-02
The first mode is                       ....  211
The number of degrees of freedom        ....  165

    -----------------------------------------------------------------
                    Redundant Internal Coordinates


    -----------------------------------------------------------------
         Definition                    Initial Value    Approx d2E/dq
    -----------------------------------------------------------------
      1. B(C   1,C   0)                  1.5347         0.367160   
      2. B(N   2,C   1)                  1.4701         0.417014   
      3. B(C   3,N   2)                  1.4725         0.413235   
      4. B(C   4,C   3)                  1.5346         0.367308   
      5. B(C   5,C   0)                  1.5347         0.367227   
      6. B(N   6,C   5)                  1.4724         0.413408   
      7. B(C   7,N   6)                  1.4700         0.417141   
      8. B(C   7,C   4)                  1.5348         0.367062   
      9. B(C   8,C   4)                  1.5173         0.391479   
     10. B(C   8,C   0)                  1.5172         0.391509   
     11. B(C   9,C   4)                  1.5199         0.387659   
     12. B(C  10,C   0)                  1.5200         0.387579   
     13. B(O  11,C   8)                  1.2074         1.094535   
     14. B(C  12,N   6)                  1.4905         0.386788   
     15. B(C  13,N   2)                  1.4907         0.386614   
     16. B(C  14,C  12)                  1.5045         0.410204   
     17. B(C  15,C  14)                  1.4015         0.598844   
     18. B(C  16,C  15)                  1.3935         0.616804   
     19. B(C  17,C  16)                  1.3961         0.610924   
     20. B(C  18,C  17)                  1.3944         0.614878   
     21. B(C  19,C  18)                  1.3942         0.615203   
     22. B(C  19,C  14)                  1.3998         0.602647   
     23. B(C  20,C  13)                  1.5046         0.410053   
     24. B(C  21,C  20)                  1.3998         0.602734   
     25. B(C  22,C  21)                  1.3942         0.615315   
     26. B(C  23,C  22)                  1.3944         0.614823   
     27. B(C  24,C  23)                  1.3961         0.611008   
     28. B(C  25,C  24)                  1.3935         0.616703   
     29. B(C  25,C  20)                  1.4015         0.598937   
     30. B(Cu 26,N   6)                  2.0420         0.516188   
     31. B(Cu 26,N   2)                  2.0419         0.516399   
     32. B(H  27,C   1)                  1.1052         0.340495   
     33. B(H  28,C   1)                  1.1011         0.345707   
     34. B(H  29,C   3)                  1.1000         0.347121   
     35. B(H  30,C   3)                  1.1056         0.340086   
     36. B(H  31,C   5)                  1.1056         0.340103   
     37. B(H  32,C   5)                  1.1000         0.347091   
     38. B(H  33,C   7)                  1.1053         0.340407   
     39. B(H  34,C   7)                  1.1010         0.345837   
     40. B(H  35,C   9)                  1.0988         0.348624   
     41. B(H  36,C   9)                  1.0997         0.347466   
     42. B(H  37,C   9)                  1.0988         0.348584   
     43. B(H  38,C  10)                  1.0997         0.347443   
     44. B(H  39,C  10)                  1.0988         0.348605   
     45. B(H  40,C  10)                  1.0988         0.348636   
     46. B(H  41,C  12)                  1.0980         0.349735   
     47. B(H  42,C  12)                  1.1039         0.342225   
     48. B(H  43,C  13)                  1.1039         0.342210   
     49. B(H  44,C  13)                  1.0980         0.349642   
     50. B(H  45,C  15)                  1.0936         0.355323   
     51. B(H  46,C  16)                  1.0928         0.356399   
     52. B(H  47,C  17)                  1.0930         0.356132   
     53. B(H  48,C  18)                  1.0927         0.356483   
     54. B(H  49,C  19)                  1.0926         0.356670   
     55. B(H  50,C  21)                  1.0925         0.356764   
     56. B(H  51,C  22)                  1.0927         0.356501   
     57. B(H  52,C  23)                  1.0930         0.356138   
     58. B(H  53,C  24)                  1.0928         0.356406   
     59. B(H  54,C  25)                  1.0936         0.355331   
     60. B(Cl 55,Cu 26)                  2.2683         0.563029   
     61. B(Cl 56,Cu 26)                  2.2684         0.562984   
     62. A(C   1,C   0,C   5)          112.8213         0.361220   
     63. A(C   5,C   0,C   8)          107.0682         0.365205   
     64. A(C   1,C   0,C   8)          107.0627         0.365194   
     65. A(C   5,C   0,C  10)          108.9605         0.364575   
     66. A(C   8,C   0,C  10)          111.8734         0.368598   
     67. A(C   1,C   0,C  10)          109.0788         0.364564   
     68. A(N   2,C   1,H  28)          107.7031         0.326067   
     69. A(H  27,C   1,H  28)          107.8883         0.286467   
     70. A(C   0,C   1,N   2)          113.9154         0.366862   
     71. A(C   0,C   1,H  27)          108.3644         0.320447   
     72. A(C   0,C   1,H  28)          109.9078         0.321244   
     73. A(N   2,C   1,H  27)          108.8999         0.325253   
     74. A(C  13,N   2,Cu 26)          109.8254         0.427790   
     75. A(C   1,N   2,C  13)          108.1933         0.367815   
     76. A(C   1,N   2,C   3)          112.0924         0.372049   
     77. A(C   3,N   2,C  13)          110.3982         0.367241   
     78. A(C   3,N   2,Cu 26)          107.3147         0.432935   
     79. A(C   1,N   2,Cu 26)          108.9982         0.433645   
     80. A(C   4,C   3,H  29)          109.3133         0.321480   
     81. A(N   2,C   3,C   4)          114.7096         0.366315   
     82. A(H  29,C   3,H  30)          107.4143         0.286595   
     83. A(N   2,C   3,H  30)          108.7423         0.324703   
     84. A(C   4,C   3,H  30)          108.0243         0.320405   
     85. A(N   2,C   3,H  29)          108.4015         0.325798   
     86. A(C   7,C   4,C   9)          109.0803         0.364560   
     87. A(C   3,C   4,C   9)          108.9424         0.364602   
     88. A(C   8,C   4,C   9)          111.8802         0.368606   
     89. A(C   7,C   4,C   8)          107.0226         0.365172   
     90. A(C   3,C   4,C   8)          107.1002         0.365214   
     91. A(C   3,C   4,C   7)          112.8401         0.361217   
     92. A(N   6,C   5,H  31)          108.7612         0.324728   
     93. A(C   0,C   5,H  31)          108.0471         0.320396   
     94. A(H  31,C   5,H  32)          107.3834         0.286594   
     95. A(C   0,C   5,N   6)          114.6892         0.366328   
     96. A(C   0,C   5,H  32)          109.3199         0.321464   
     97. A(N   6,C   5,H  32)          108.4032         0.325816   
     98. A(C   5,N   6,C   7)          112.1082         0.372095   
     99. A(C  12,N   6,Cu 26)          109.7269         0.427794   
    100. A(C   5,N   6,C  12)          110.4583         0.367296   
    101. A(C   7,N   6,C  12)          108.1762         0.367862   
    102. A(C   7,N   6,Cu 26)          109.0040         0.433637   
    103. A(C   5,N   6,Cu 26)          107.3450         0.432936   
    104. A(C   4,C   7,N   6)          113.8835         0.366864   
    105. A(H  33,C   7,H  34)          107.9531         0.286472   
    106. A(N   6,C   7,H  34)          107.6741         0.326104   
    107. A(C   4,C   7,H  34)          109.9120         0.321250   
    108. A(N   6,C   7,H  33)          108.8761         0.325256   
    109. A(C   4,C   7,H  33)          108.3853         0.320419   
    110. A(C   0,C   8,C   4)          111.4336         0.369232   
    111. A(C   4,C   8,O  11)          124.2742         0.439741   
    112. A(C   0,C   8,O  11)          124.2921         0.439747   
    113. A(H  35,C   9,H  37)          107.9621         0.287897   
    114. A(H  36,C   9,H  37)          108.6105         0.287747   
    115. A(C   4,C   9,H  37)          110.5891         0.324559   
    116. A(H  35,C   9,H  36)          108.6338         0.287752   
    117. A(C   4,C   9,H  36)          110.3765         0.324388   
    118. A(C   4,C   9,H  35)          110.5954         0.324565   
    119. A(H  39,C  10,H  40)          107.9509         0.287901   
    120. A(H  38,C  10,H  40)          108.6458         0.287751   
    121. A(C   0,C  10,H  40)          110.5916         0.324556   
    122. A(H  38,C  10,H  39)          108.6067         0.287747   
    123. A(C   0,C  10,H  39)          110.5785         0.324551   
    124. A(C   0,C  10,H  38)          110.3935         0.324373   
    125. A(H  41,C  12,H  42)          108.5114         0.287212   
    126. A(N   6,C  12,C  14)          114.5020         0.369111   
    127. A(C  14,C  12,H  42)          109.6655         0.326600   
    128. A(N   6,C  12,H  42)          107.1514         0.321531   
    129. A(C  14,C  12,H  41)          110.5912         0.327770   
    130. A(N   6,C  12,H  41)          106.1871         0.322676   
    131. A(H  43,C  13,H  44)          108.4709         0.287198   
    132. A(C  20,C  13,H  44)          110.6120         0.327736   
    133. A(N   2,C  13,H  44)          106.2222         0.322638   
    134. A(C  20,C  13,H  43)          109.6464         0.326578   
    135. A(N   2,C  13,H  43)          107.1504         0.321505   
    136. A(N   2,C  13,C  20)          114.5046         0.369059   
    137. A(C  12,C  14,C  19)          120.9798         0.401254   
    138. A(C  12,C  14,C  15)          120.2319         0.400807   
    139. A(C  15,C  14,C  19)          118.7870         0.429172   
    140. A(C  14,C  15,C  16)          120.7631         0.430965   
    141. A(C  16,C  15,H  45)          119.6919         0.351805   
    142. A(C  14,C  15,H  45)          119.5446         0.350053   
    143. A(C  15,C  16,C  17)          119.9532         0.432514   
    144. A(C  17,C  16,H  46)          120.1992         0.351415   
    145. A(C  15,C  16,H  46)          119.8472         0.351985   
    146. A(C  16,C  17,C  18)          119.7218         0.432271   
    147. A(C  18,C  17,H  47)          120.1895         0.351754   
    148. A(C  16,C  17,H  47)          120.0873         0.351371   
    149. A(C  19,C  18,H  48)          119.6205         0.351844   
    150. A(C  17,C  18,H  48)          120.1431         0.351813   
    151. A(C  17,C  18,C  19)          120.2364         0.432814   
    152. A(C  18,C  19,H  49)          120.1494         0.351875   
    153. A(C  14,C  19,H  49)          119.3213         0.350651   
    154. A(C  14,C  19,C  18)          120.5292         0.431254   
    155. A(C  21,C  20,C  25)          118.7760         0.429195   
    156. A(C  13,C  20,C  25)          120.2510         0.400792   
    157. A(C  13,C  20,C  21)          120.9716         0.401239   
    158. A(C  22,C  21,H  50)          120.1739         0.351902   
    159. A(C  20,C  21,H  50)          119.2751         0.350675   
    160. A(C  20,C  21,C  22)          120.5510         0.431279   
    161. A(C  23,C  22,H  51)          120.1571         0.351810   
    162. A(C  21,C  22,H  51)          119.6201         0.351858   
    163. A(C  21,C  22,C  23)          120.2227         0.432821   
    164. A(C  24,C  23,H  52)          120.0848         0.351380   
    165. A(C  22,C  23,H  52)          120.1946         0.351750   
    166. A(C  22,C  23,C  24)          119.7192         0.432275   
    167. A(C  25,C  24,H  53)          119.8410         0.351976   
    168. A(C  23,C  24,H  53)          120.1960         0.351425   
    169. A(C  23,C  24,C  25)          119.9627         0.432512   
    170. A(C  24,C  25,H  54)          119.6624         0.351797   
    171. A(C  20,C  25,H  54)          119.5783         0.350064   
    172. A(C  20,C  25,C  24)          120.7588         0.430964   
    173. A(Cl 55,Cu 26,Cl 56)          112.6304         0.566839   
    174. A(N   6,Cu 26,Cl 56)           98.7512         0.536291   
    175. A(N   2,Cu 26,Cl 56)          129.0396         0.536333   
    176. A(N   6,Cu 26,Cl 55)          129.4433         0.536299   
    177. A(N   2,Cu 26,Cl 55)           99.0151         0.536341   
    178. A(N   2,Cu 26,N   6)           89.6110         0.507742   
    179. D(H  28,C   1,C   0,C   8)   -176.9929         0.010787   
    180. D(H  28,C   1,C   0,C  10)     61.7742         0.010787   
    181. D(H  27,C   1,C   0,C   5)   -177.1339         0.010787   
    182. D(H  28,C   1,C   0,C   5)    -59.4602         0.010787   
    183. D(H  27,C   1,C   0,C  10)    -55.8994         0.010787   
    184. D(H  27,C   1,C   0,C   8)     65.3334         0.010787   
    185. D(N   2,C   1,C   0,C   5)     61.4961         0.010787   
    186. D(N   2,C   1,C   0,C  10)   -177.2695         0.010787   
    187. D(N   2,C   1,C   0,C   8)    -56.0366         0.010787   
    188. D(C   3,N   2,C   1,H  27)    -69.6609         0.015884   
    189. D(C  13,N   2,C   1,H  28)    -64.4484         0.015884   
    190. D(C  13,N   2,C   1,H  27)     52.3011         0.015884   
    191. D(C  13,N   2,C   1,C   0)    173.3733         0.015884   
    192. D(C   3,N   2,C   1,C   0)     51.4113         0.015884   
    193. D(Cu 26,N   2,C   1,H  28)     54.9397         0.015884   
    194. D(C   3,N   2,C   1,H  28)    173.5896         0.015884   
    195. D(Cu 26,N   2,C   1,H  27)    171.6891         0.015884   
    196. D(Cu 26,N   2,C   1,C   0)    -67.2387         0.015884   
    197. D(C   4,C   3,N   2,C   1)    -50.7045         0.015598   
    198. D(H  29,C   3,N   2,Cu 26)    -53.5287         0.015598   
    199. D(H  29,C   3,N   2,C   1)   -173.1687         0.015598   
    200. D(H  30,C   3,N   2,C  13)    -50.3464         0.015598   
    201. D(H  30,C   3,N   2,Cu 26)   -170.0128         0.015598   
    202. D(H  30,C   3,N   2,C   1)     70.3472         0.015598   
    203. D(C   4,C   3,N   2,C  13)   -171.3981         0.015598   
    204. D(H  29,C   3,N   2,C  13)     66.1377         0.015598   
    205. D(C   4,C   3,N   2,Cu 26)     68.9355         0.015598   
    206. D(C   7,C   4,C   3,H  30)    175.3010         0.010795   
    207. D(C   7,C   4,C   3,H  29)     58.7159         0.010795   
    208. D(C   8,C   4,C   3,N   2)     54.2571         0.010795   
    209. D(C   7,C   4,C   3,N   2)    -63.2541         0.010795   
    210. D(C   9,C   4,C   3,H  30)     53.9978         0.010795   
    211. D(C   9,C   4,C   3,N   2)    175.4428         0.010795   
    212. D(C   8,C   4,C   3,H  29)    176.2271         0.010795   
    213. D(C   9,C   4,C   3,H  29)    -62.5873         0.010795   
    214. D(C   8,C   4,C   3,H  30)    -67.1878         0.010795   
    215. D(H  32,C   5,C   0,C  10)    -62.5950         0.010790   
    216. D(H  32,C   5,C   0,C   8)    176.2360         0.010790   
    217. D(H  32,C   5,C   0,C   1)     58.7065         0.010790   
    218. D(H  31,C   5,C   0,C  10)     53.9694         0.010790   
    219. D(H  31,C   5,C   0,C   1)    175.2710         0.010790   
    220. D(N   6,C   5,C   0,C  10)    175.4419         0.010790   
    221. D(N   6,C   5,C   0,C   8)     54.2730         0.010790   
    222. D(H  31,C   5,C   0,C   8)    -67.1995         0.010790   
    223. D(N   6,C   5,C   0,C   1)    -63.2565         0.010790   
    224. D(Cu 26,N   6,C   5,H  32)    -53.5219         0.015611   
    225. D(Cu 26,N   6,C   5,H  31)   -169.9805         0.015611   
    226. D(Cu 26,N   6,C   5,C   0)     68.9382         0.015611   
    227. D(C  12,N   6,C   5,H  31)    -50.3807         0.015611   
    228. D(C  12,N   6,C   5,C   0)   -171.4620         0.015611   
    229. D(C   7,N   6,C   5,H  32)   -173.1980         0.015611   
    230. D(C   7,N   6,C   5,C   0)    -50.7379         0.015611   
    231. D(C  12,N   6,C   5,H  32)     66.0779         0.015611   
    232. D(C   7,N   6,C   5,H  31)     70.3435         0.015611   
    233. D(H  34,C   7,C   4,C   9)     61.7961         0.010781   
    234. D(H  34,C   7,C   4,C   3)    -59.4288         0.010781   
    235. D(H  33,C   7,C   4,C   9)    -55.9702         0.010781   
    236. D(H  33,C   7,C   4,C   8)     65.2480         0.010781   
    237. D(H  33,C   7,C   4,C   3)   -177.1951         0.010781   
    238. D(N   6,C   7,C   4,C   9)   -177.3040         0.010781   
    239. D(H  34,C   7,C   4,C   8)   -176.9857         0.010781   
    240. D(N   6,C   7,C   4,C   8)    -56.0858         0.010781   
    241. D(N   6,C   7,C   4,C   3)     61.4711         0.010781   
    242. D(H  34,C   7,N   6,Cu 26)     54.9023         0.015894   
    243. D(H  34,C   7,N   6,C   5)    173.6034         0.015894   
    244. D(H  33,C   7,N   6,Cu 26)    171.7001         0.015894   
    245. D(H  33,C   7,N   6,C  12)     52.4370         0.015894   
    246. D(H  33,C   7,N   6,C   5)    -69.5989         0.015894   
    247. D(C   4,C   7,N   6,Cu 26)    -67.2394         0.015894   
    248. D(H  34,C   7,N   6,C  12)    -64.3608         0.015894   
    249. D(C   4,C   7,N   6,C  12)    173.4975         0.015894   
    250. D(C   4,C   7,N   6,C   5)     51.4617         0.015894   
    251. D(O  11,C   8,C   4,C   9)      0.6518         0.011397   
    252. D(O  11,C   8,C   4,C   7)   -118.7784         0.011397   
    253. D(O  11,C   8,C   4,C   3)    119.9625         0.011397   
    254. D(C   0,C   8,C   4,C   9)   -179.3721         0.011397   
    255. D(C   0,C   8,C   4,C   7)     61.1977         0.011397   
    256. D(C   0,C   8,C   4,C   3)    -60.0614         0.011397   
    257. D(O  11,C   8,C   0,C  10)      0.5456         0.011399   
    258. D(O  11,C   8,C   0,C   5)    119.8543         0.011399   
    259. D(O  11,C   8,C   0,C   1)   -118.9043         0.011399   
    260. D(C   4,C   8,C   0,C   5)    -60.1218         0.011399   
    261. D(C   4,C   8,C   0,C   1)     61.1196         0.011399   
    262. D(C   4,C   8,C   0,C  10)   -179.4305         0.011399   
    263. D(H  37,C   9,C   4,C   8)    -60.4119         0.011954   
    264. D(H  37,C   9,C   4,C   7)     57.7993         0.011954   
    265. D(H  37,C   9,C   4,C   3)   -178.6308         0.011954   
    266. D(H  36,C   9,C   4,C   8)    179.3764         0.011954   
    267. D(H  36,C   9,C   4,C   7)    -62.4123         0.011954   
    268. D(H  36,C   9,C   4,C   3)     61.1576         0.011954   
    269. D(H  35,C   9,C   4,C   8)     59.1317         0.011954   
    270. D(H  35,C   9,C   4,C   7)    177.3430         0.011954   
    271. D(H  35,C   9,C   4,C   3)    -59.0871         0.011954   
    272. D(H  40,C  10,C   0,C   8)     59.1645         0.011949   
    273. D(H  40,C  10,C   0,C   5)    -59.0224         0.011949   
    274. D(H  40,C  10,C   0,C   1)    177.4203         0.011949   
    275. D(H  39,C  10,C   0,C   1)     57.8998         0.011949   
    276. D(H  38,C  10,C   0,C   8)    179.4329         0.011949   
    277. D(H  38,C  10,C   0,C   5)     61.2461         0.011949   
    278. D(H  38,C  10,C   0,C   1)    -62.3113         0.011949   
    279. D(H  39,C  10,C   0,C   5)   -178.5429         0.011949   
    280. D(H  39,C  10,C   0,C   8)    -60.3560         0.011949   
    281. D(H  42,C  12,N   6,C   7)     58.6559         0.013688   
    282. D(H  42,C  12,N   6,C   5)   -178.3009         0.013688   
    283. D(H  41,C  12,N   6,Cu 26)     55.6724         0.013688   
    284. D(H  41,C  12,N   6,C   7)    174.4777         0.013688   
    285. D(H  41,C  12,N   6,C   5)    -62.4791         0.013688   
    286. D(C  14,C  12,N   6,Cu 26)    178.0000         0.013688   
    287. D(C  14,C  12,N   6,C   7)    -63.1947         0.013688   
    288. D(H  42,C  12,N   6,Cu 26)    -60.1494         0.013688   
    289. D(C  14,C  12,N   6,C   5)     59.8486         0.013688   
    290. D(H  44,C  13,N   2,Cu 26)     59.6190         0.013676   
    291. D(H  44,C  13,N   2,C   1)    178.4839         0.013676   
    292. D(H  43,C  13,N   2,Cu 26)    -56.1728         0.013676   
    293. D(H  43,C  13,N   2,C   3)   -174.3112         0.013676   
    294. D(H  43,C  13,N   2,C   1)     62.6921         0.013676   
    295. D(C  20,C  13,N   2,Cu 26)   -178.0000         0.013676   
    296. D(H  44,C  13,N   2,C   3)    -58.5193         0.013676   
    297. D(C  20,C  13,N   2,C   3)     63.8616         0.013676   
    298. D(C  20,C  13,N   2,C   1)    -59.1351         0.013676   
    299. D(C  19,C  14,C  12,H  42)    154.0136         0.012462   
    300. D(C  19,C  14,C  12,H  41)     34.3812         0.012462   
    301. D(C  19,C  14,C  12,N   6)    -85.5199         0.012462   
    302. D(C  15,C  14,C  12,H  42)    -25.5571         0.012462   
    303. D(C  15,C  14,C  12,H  41)   -145.1896         0.012462   
    304. D(C  15,C  14,C  12,N   6)     94.9094         0.012462   
    305. D(C  16,C  15,C  14,C  12)   -179.4454         0.024717   
    306. D(H  45,C  15,C  14,C  19)   -178.8128         0.024717   
    307. D(H  45,C  15,C  14,C  12)      0.7673         0.024717   
    308. D(C  16,C  15,C  14,C  19)      0.9745         0.024717   
    309. D(H  46,C  16,C  15,H  45)     -0.2215         0.026310   
    310. D(H  46,C  16,C  15,C  14)    179.9915         0.026310   
    311. D(C  17,C  16,C  15,H  45)    179.5681         0.026310   
    312. D(C  17,C  16,C  15,C  14)     -0.2189         0.026310   
    313. D(H  47,C  17,C  16,H  46)     -0.2272         0.025781   
    314. D(H  47,C  17,C  16,C  15)    179.9840         0.025781   
    315. D(C  18,C  17,C  16,H  46)    179.3318         0.025781   
    316. D(C  18,C  17,C  16,C  15)     -0.4570         0.025781   
    317. D(H  48,C  18,C  17,H  47)     -0.0277         0.026136   
    318. D(H  48,C  18,C  17,C  16)   -179.5862         0.026136   
    319. D(C  19,C  18,C  17,H  47)    179.9215         0.026136   
    320. D(C  19,C  18,C  17,C  16)      0.3630         0.026136   
    321. D(H  49,C  19,C  18,H  48)      0.4175         0.026165   
    322. D(H  49,C  19,C  18,C  17)   -179.5320         0.026165   
    323. D(C  14,C  19,C  18,H  48)   -179.6413         0.026165   
    324. D(C  14,C  19,C  18,C  17)      0.4092         0.026165   
    325. D(H  49,C  19,C  14,C  15)    178.8738         0.025049   
    326. D(H  49,C  19,C  14,C  12)     -0.7030         0.025049   
    327. D(C  18,C  19,C  14,C  15)     -1.0678         0.025049   
    328. D(C  18,C  19,C  14,C  12)    179.3553         0.025049   
    329. D(C  25,C  20,C  13,H  44)   -144.8068         0.012453   
    330. D(C  25,C  20,C  13,H  43)    -25.2237         0.012453   
    331. D(C  25,C  20,C  13,N   2)     95.2293         0.012453   
    332. D(C  21,C  20,C  13,H  44)     34.7541         0.012453   
    333. D(C  21,C  20,C  13,H  43)    154.3373         0.012453   
    334. D(C  21,C  20,C  13,N   2)    -85.2098         0.012453   
    335. D(H  50,C  21,C  20,C  25)    178.8998         0.025057   
    336. D(H  50,C  21,C  20,C  13)     -0.6675         0.025057   
    337. D(C  22,C  21,C  20,C  25)     -1.0830         0.025057   
    338. D(C  22,C  21,C  20,C  13)    179.3497         0.025057   
    339. D(H  51,C  22,C  21,H  50)      0.3853         0.026175   
    340. D(H  51,C  22,C  21,C  20)   -179.6321         0.026175   
    341. D(C  23,C  22,C  21,H  50)   -179.5736         0.026175   
    342. D(C  23,C  22,C  21,C  20)      0.4090         0.026175   
    343. D(H  52,C  23,C  22,H  51)     -0.0129         0.026131   
    344. D(H  52,C  23,C  22,C  21)    179.9457         0.026131   
    345. D(C  24,C  23,C  22,H  51)   -179.5825         0.026131   
    346. D(C  24,C  23,C  22,C  21)      0.3761         0.026131   
    347. D(H  53,C  24,C  23,H  52)     -0.2443         0.025789   
    348. D(H  53,C  24,C  23,C  22)    179.3258         0.025789   
    349. D(C  25,C  24,C  23,H  52)    179.9626         0.025789   
    350. D(C  25,C  24,C  23,C  22)     -0.4673         0.025789   
    351. D(H  54,C  25,C  24,H  53)     -0.2446         0.026300   
    352. D(H  54,C  25,C  24,C  23)    179.5492         0.026300   
    353. D(C  20,C  25,C  24,H  53)    179.9819         0.026300   
    354. D(C  20,C  25,C  24,C  23)     -0.2243         0.026300   
    355. D(H  54,C  25,C  20,C  21)   -178.7814         0.024725   
    356. D(H  54,C  25,C  20,C  13)      0.7891         0.024725   
    357. D(C  24,C  25,C  20,C  21)      0.9923         0.024725   
    358. D(C  24,C  25,C  20,C  13)   -179.4372         0.024725   
    359. D(Cl 56,Cu 26,N   6,C  12)     49.7110         0.002810   
    360. D(Cl 56,Cu 26,N   6,C   7)    -68.5825         0.002810   
    361. D(Cl 56,Cu 26,N   6,C   5)    169.7773         0.002810   
    362. D(Cl 55,Cu 26,N   6,C  12)    -79.3960         0.002810   
    363. D(Cl 55,Cu 26,N   6,C   7)    162.3104         0.002810   
    364. D(Cl 55,Cu 26,N   6,C   5)     40.6702         0.002810   
    365. D(N   2,Cu 26,N   6,C  12)    179.2235         0.002810   
    366. D(N   2,Cu 26,N   6,C   7)     60.9299         0.002810   
    367. D(N   2,Cu 26,N   6,C   5)    -60.7103         0.002810   
    368. D(Cl 56,Cu 26,N   2,C  13)    -79.7729         0.002811   
    369. D(Cl 56,Cu 26,N   2,C   3)     40.2590         0.002811   
    370. D(Cl 56,Cu 26,N   2,C   1)    161.8586         0.002811   
    371. D(Cl 55,Cu 26,N   2,C  13)     49.2962         0.002811   
    372. D(Cl 55,Cu 26,N   2,C   3)    169.3281         0.002811   
    373. D(Cl 55,Cu 26,N   2,C   1)    -69.0723         0.002811   
    374. D(N   6,Cu 26,N   2,C  13)    179.2521         0.002811   
    375. D(N   6,Cu 26,N   2,C   3)    -60.7160         0.002811   
    376. D(N   6,Cu 26,N   2,C   1)     60.8836         0.002811   
    -----------------------------------------------------------------

Number of atoms                         .... 57
Number of degrees of freedom            .... 376

         *************************************************************
         *                GEOMETRY OPTIMIZATION CYCLE   1            *
         *************************************************************
---------------------------------
CARTESIAN COORDINATES (ANGSTROEM)
---------------------------------
  C     -0.773060    1.340186    0.621770
  C      0.733810    1.055129    0.563155
  N      1.111907   -0.263384    1.091959
  C      0.319444   -1.349199    0.490822
  C     -1.198901   -1.128692    0.522727
  C     -1.324054    1.337660    2.054110
  N     -1.219306    0.044883    2.751087
  C     -1.761288   -1.061475    1.949182
  C     -1.468008    0.216860   -0.124682
  C     -1.878135   -2.263576   -0.226174
  C     -1.047393    2.694916   -0.010521
  O     -2.149358    0.373685   -1.109030
  C     -1.959954    0.088467    4.043853
  C      2.563975   -0.472036    0.827321
  C     -3.429340    0.383466    3.911498
  C     -4.357882   -0.665152    3.861034
  C     -5.720304   -0.404946    3.727036
  C     -6.173591    0.913045    3.646054
  C     -5.259116    1.963732    3.709480
  C     -3.896593    1.701358    3.845556
  C      2.947332   -0.418536   -0.626678
  C      2.849122   -1.553712   -1.439777
  C      3.193915   -1.490855   -2.789168
  C      3.649629   -0.294692   -3.342172
  C      3.767125    0.839640   -2.536869
  C      3.420116    0.775097   -1.188760
  Cu     0.762616   -0.297929    3.103433
  H      1.060809    1.125571   -0.490249
  H      1.282145    1.816693    1.139156
  H      0.562019   -2.286353    1.013203
  H      0.625475   -1.469958   -0.564658
  H     -2.388380    1.633795    2.012172
  H     -0.794908    2.096756    2.648931
  H     -2.859455   -0.952979    1.886208
  H     -1.542979   -1.999392    2.482900
  H     -1.527584   -2.304365   -1.266774
  H     -1.658084   -3.226775    0.256748
  H     -2.967388   -2.119442   -0.240936
  H     -0.541330    3.491127    0.554613
  H     -0.685920    2.717257   -1.047955
  H     -2.126011    2.904202   -0.023141
  H     -1.465523    0.855639    4.654163
  H     -1.820336   -0.891595    4.532209
  H      3.111731    0.307740    1.384497
  H      2.816858   -1.449892    1.258022
  H     -4.008157   -1.698982    3.931212
  H     -6.431214   -1.234048    3.689134
  H     -7.241716    1.119645    3.540658
  H     -5.607003    2.998115    3.653573
  H     -3.182000    2.525899    3.902793
  H      2.498762   -2.493104   -1.005703
  H      3.105684   -2.384816   -3.411355
  H      3.920660   -0.246155   -4.399934
  H      4.133885    1.778248   -2.959630
  H      3.521087    1.664694   -0.560711
  Cl     2.378931    1.147379    3.769734
  Cl     0.563155   -2.083243    4.488466

----------------------------
CARTESIAN COORDINATES (A.U.)
----------------------------
  NO LB      ZA    FRAG     MASS         X           Y           Z
   0 C     6.0000    0    12.011   -1.460872    2.532584    1.174975
   1 C     6.0000    0    12.011    1.386699    1.993904    1.064210
   2 N     7.0000    0    14.007    2.101200   -0.497724    2.063503
   3 C     6.0000    0    12.011    0.603662   -2.549616    0.927519
   4 C     6.0000    0    12.011   -2.265594   -2.132918    0.987810
   5 C     6.0000    0    12.011   -2.502099    2.527811    3.881705
   6 N     7.0000    0    14.007   -2.304154    0.084816    5.198800
   7 C     6.0000    0    12.011   -3.328352   -2.005896    3.683421
   8 C     6.0000    0    12.011   -2.774134    0.409807   -0.235615
   9 C     6.0000    0    12.011   -3.549160   -4.277539   -0.427407
  10 C     6.0000    0    12.011   -1.979287    5.092653   -0.019882
  11 O     8.0000    0    15.999   -4.061698    0.706163   -2.095764
  12 C     6.0000    0    12.011   -3.703777    0.167178    7.641775
  13 C     6.0000    0    12.011    4.845211   -0.892019    1.563410
  14 C     6.0000    0    12.011   -6.480513    0.724646    7.391661
  15 C     6.0000    0    12.011   -8.235204   -1.256955    7.296298
  16 C     6.0000    0    12.011  -10.809808   -0.765238    7.043078
  17 C     6.0000    0    12.011  -11.666395    1.725405    6.890044
  18 C     6.0000    0    12.011   -9.938289    3.710915    7.009901
  19 C     6.0000    0    12.011   -7.363493    3.215100    7.267048
  20 C     6.0000    0    12.011    5.569651   -0.790918   -1.184249
  21 C     6.0000    0    12.011    5.384060   -2.936091   -2.720784
  22 C     6.0000    0    12.011    6.035624   -2.817308   -5.270763
  23 C     6.0000    0    12.011    6.896800   -0.556887   -6.315789
  24 C     6.0000    0    12.011    7.118834    1.586689   -4.793988
  25 C     6.0000    0    12.011    6.463082    1.464721   -2.246431
  26 Cu   29.0000    0    63.550    1.441135   -0.563005    5.864639
  27 H     1.0000    0     1.008    2.004639    2.127020   -0.926437
  28 H     1.0000    0     1.008    2.422902    3.433053    2.152693
  29 H     1.0000    0     1.008    1.062063   -4.320581    1.914677
  30 H     1.0000    0     1.008    1.181976   -2.777818   -1.067049
  31 H     1.0000    0     1.008   -4.513385    3.087426    3.802454
  32 H     1.0000    0     1.008   -1.502158    3.962295    5.005755
  33 H     1.0000    0     1.008   -5.403587   -1.800870    3.564416
  34 H     1.0000    0     1.008   -2.915808   -3.778304    4.692001
  35 H     1.0000    0     1.008   -2.886715   -4.354619   -2.393856
  36 H     1.0000    0     1.008   -3.133325   -6.097721    0.485184
  37 H     1.0000    0     1.008   -5.607550   -4.005164   -0.455302
  38 H     1.0000    0     1.008   -1.022965    6.597273    1.048066
  39 H     1.0000    0     1.008   -1.296202    5.134871   -1.980348
  40 H     1.0000    0     1.008   -4.017579    5.488146   -0.043731
  41 H     1.0000    0     1.008   -2.769437    1.616924    8.795094
  42 H     1.0000    0     1.008   -3.439937   -1.684870    8.564634
  43 H     1.0000    0     1.008    5.880319    0.581544    2.616320
  44 H     1.0000    0     1.008    5.323090   -2.739898    2.377317
  45 H     1.0000    0     1.008   -7.574319   -3.210611    7.428914
  46 H     1.0000    0     1.008  -12.153232   -2.332013    6.971454
  47 H     1.0000    0     1.008  -13.684860    2.115821    6.690875
  48 H     1.0000    0     1.008  -10.595699    5.665616    6.904253
  49 H     1.0000    0     1.008   -6.013109    4.773257    7.375210
  50 H     1.0000    0     1.008    4.721976   -4.711285   -1.900504
  51 H     1.0000    0     1.008    5.868893   -4.506650   -6.446527
  52 H     1.0000    0     1.008    7.408974   -0.465166   -8.314670
  53 H     1.0000    0     1.008    7.811910    3.360403   -5.592889
  54 H     1.0000    0     1.008    6.653890    3.145816   -1.059590
  55 Cl   17.0000    0    35.453    4.495528    2.168232    7.123764
  56 Cl   17.0000    0    35.453    1.064208   -3.936759    8.481972

--------------------------------
INTERNAL COORDINATES (ANGSTROEM)
--------------------------------
 C      0   0   0     0.000000000000     0.00000000     0.00000000
 C      1   0   0     1.534714701954     0.00000000     0.00000000
 N      2   1   0     1.470056513274   113.91535102     0.00000000
 C      3   2   1     1.472534453961   112.09236781    51.41127579
 C      4   3   2     1.534604850029   114.70960589   309.29548704
 C      1   2   3     1.534665414569   112.82128965    61.49607670
 N      6   1   2     1.472420566671   114.68923312   296.74353164
 C      7   6   1     1.469973346011   112.10819630   309.26212206
 C      1   2   3     1.517235782462   107.06271619   303.96338583
 C      5   4   3     1.519925744051   108.94244075   175.44275904
 C      1   2   3     1.519982065498   109.07881651   182.73051269
 O      9   1   2     1.207382636825   124.29213631   241.09572305
 C      7   6   1     1.490538575358   110.45827052   188.53795284
 C      3   2   1     1.490661042511   108.19327090   173.37327517
 C     13   7   6     1.504538491462   114.50200208    59.84855040
 C     15  13   7     1.401548525199   120.23188962    94.90937924
 C     16  15  13     1.393504523396   120.76312197   180.55459131
 C     17  16  15     1.396111990086   119.95319073   359.78110777
 C     18  17  16     1.394355716728   119.72177612   359.54298377
 C     19  18  17     1.394212001169   120.23636775     0.36301817
 C     14   3   2     1.504638572877   114.50456312   300.86488002
 C     21  14   3     1.399786014241   120.97157476   274.79021673
 C     22  21  14     1.394162748989   120.55100607   179.34967137
 C     23  22  21     1.394380302626   120.22269739     0.40904757
 C     24  23  22     1.396074800461   119.71917115     0.37608993
 C     25  24  23     1.393549088653   119.96265020   359.53267389
 Cu     3   2   1     2.041868657125   108.99820155   292.76132645
 H      2   1   3     1.105238733326   108.36436226   121.37005482
 H      2   1   3     1.101103735776   109.90783043   239.04369102
 H      4   3   2     1.099992407017   108.40148087   186.83129132
 H      4   3   2     1.105565745808   108.74232547    70.34715402
 H      6   1   2     1.105552313522   108.04705271   175.27101891
 H      6   1   2     1.100015867935   109.31989622    58.70653538
 H      8   7   6     1.105309336655   108.87610800   290.40114164
 H      8   7   6     1.101000831284   107.67407508   173.60339002
 H     10   5   4     1.098816542284   110.59535058   300.91289186
 H     10   5   4     1.099721875016   110.37645286    61.15758600
 H     10   5   4     1.098847213538   110.58909363   181.36921477
 H     11   1   2     1.099739921280   110.39354600   297.68871782
 H     11   1   2     1.098831335886   110.57852922    57.89978667
 H     11   1   2     1.098806597028   110.59164538   177.42026763
 H     13   7   6     1.097950223512   106.18707321   297.52092812
 H     13   7   6     1.103859381008   107.15136373   181.69914506
 H     14   3   2     1.103871294916   107.15041858    62.69209226
 H     14   3   2     1.098022760929   106.22215317   178.48390167
 H     16  15  13     1.093635173672   119.54459970     0.76733149
 H     17  16  15     1.092812437609   119.84723511   179.99152072
 H     18  17  16     1.093015862634   120.08726879   179.98399701
 H     19  18  17     1.092748257109   120.14309796   180.41377336
 H     20  19  18     1.092605413707   120.14940603   180.46802015
 H     22  21  14     1.092533258073   119.27513033   359.33246260
 H     23  22  21     1.092733972034   119.62014609   180.36789034
 H     24  23  22     1.093011780178   120.19464645   179.94570401
 H     25  24  23     1.092806588824   120.19603070   179.32582570
 H     26  25  24     1.093628851617   119.66244989   179.54924566
 Cl    27   3   2     2.268335511749    99.01507535   290.92771034
 Cl    27   3   2     2.268357637477   129.03958935   161.85864812

---------------------------
INTERNAL COORDINATES (A.U.)
---------------------------
 C      0   0   0     0.000000000000     0.00000000     0.00000000
 C      1   0   0     2.900190480396     0.00000000     0.00000000
 N      2   1   0     2.778004211476   113.91535102     0.00000000
 C      3   2   1     2.782686840750   112.09236781    51.41127579
 C      4   3   2     2.899982890342   114.70960589   309.29548704
 C      1   2   3     2.900097340736   112.82128965    61.49607670
 N      6   1   2     2.782471624961   114.68923312   296.74353164
 C      7   6   1     2.777847048124   112.10819630   309.26212206
 C      1   2   3     2.867160109438   107.06271619   303.96338583
 C      5   4   3     2.872243400153   108.94244075   175.44275904
 C      1   2   3     2.872349832264   109.07881651   182.73051269
 O      9   1   2     2.281622522452   124.29213631   241.09572305
 C      7   6   1     2.816709699472   110.45827052   188.53795284
 C      3   2   1     2.816941128852   108.19327090   173.37327517
 C     13   7   6     2.843165706806   114.50200208    59.84855040
 C     15  13   7     2.648542876027   120.23188962    94.90937924
 C     16  15  13     2.633341915600   120.76312197   180.55459131
 C     17  16  15     2.638269313547   119.95319073   359.78110777
 C     18  17  16     2.634950437883   119.72177612   359.54298377
 C     19  18  17     2.634678854837   120.23636775     0.36301817
 C     14   3   2     2.843354833272   114.50456312   300.86488002
 C     21  14   3     2.645212213008   120.97157476   274.79021673
 C     22  21  14     2.634585781704   120.55100607   179.34967137
 C     23  22  21     2.634996898497   120.22269739     0.40904757
 C     24  23  22     2.638199035340   119.71917115     0.37608993
 C     25  24  23     2.633426131729   119.96265020   359.53267389
 Cu     3   2   1     3.858572563405   108.99820155   292.76132645
 H      2   1   3     2.088598518587   108.36436226   121.37005482
 H      2   1   3     2.080784505655   109.90783043   239.04369102
 H      4   3   2     2.078684398654   108.40148087   186.83129132
 H      4   3   2     2.089216482621   108.74232547    70.34715402
 H      6   1   2     2.089191099280   108.04705271   175.27101891
 H      6   1   2     2.078728733364   109.31989622    58.70653538
 H      8   7   6     2.088731939543   108.87610800   290.40114164
 H      8   7   6     2.080590044346   107.67407508   173.60339002
 H     10   5   4     2.076462336339   110.59535058   300.91289186
 H     10   5   4     2.078173167262   110.37645286    61.15758600
 H     10   5   4     2.076520296609   110.58909363   181.36921477
 H     11   1   2     2.078207269760   110.39354600   297.68871782
 H     11   1   2     2.076490292195   110.57852922    57.89978667
 H     11   1   2     2.076443542529   110.59164538   177.42026763
 H     13   7   6     2.074825231114   106.18707321   297.52092812
 H     13   7   6     2.085991920466   107.15136373   181.69914506
 H     14   3   2     2.086014434487   107.15041858    62.69209226
 H     14   3   2     2.074962306968   106.22215317   178.48390167
 H     16  15  13     2.066670968664   119.54459970     0.76733149
 H     17  16  15     2.065116222824   119.84723511   179.99152072
 H     18  17  16     2.065500640409   120.08726879   179.98399701
 H     19  18  17     2.064994939255   120.14309796   180.41377336
 H     20  19  18     2.064725004347   120.14940603   180.46802015
 H     22  21  14     2.064588649959   119.27513033   359.33246260
 H     23  22  21     2.064967944376   119.62014609   180.36789034
 H     24  23  22     2.065492925686   120.19464645   179.94570401
 H     25  24  23     2.065105170221   120.19603070   179.32582570
 H     26  25  24     2.066659021712   119.66244989   179.54924566
 Cl    27   3   2     4.286532897054    99.01507535   290.92771034
 Cl    27   3   2     4.286574708620   129.03958935   161.85864812

---------------------
BASIS SET INFORMATION
---------------------
There are 6 groups of distinct atoms

 Group   1 Type C   : 7s4p1d contracted to 3s2p1d pattern {511/31/1}
 Group   2 Type N   : 7s4p1d contracted to 3s2p1d pattern {511/31/1}
 Group   3 Type O   : 7s4p1d contracted to 3s2p1d pattern {511/31/1}
 Group   4 Type Cu  : 14s9p5d1f contracted to 5s3p2d1f pattern {63311/531/41/1}
 Group   5 Type H   : 4s1p contracted to 2s1p pattern {31/1}
 Group   6 Type Cl  : 10s7p1d contracted to 4s3p1d pattern {5311/511/1}

Atom   0C    basis set group =>   1
Atom   1C    basis set group =>   1
Atom   2N    basis set group =>   2
Atom   3C    basis set group =>   1
Atom   4C    basis set group =>   1
Atom   5C    basis set group =>   1
Atom   6N    basis set group =>   2
Atom   7C    basis set group =>   1
Atom   8C    basis set group =>   1
Atom   9C    basis set group =>   1
Atom  10C    basis set group =>   1
Atom  11O    basis set group =>   3
Atom  12C    basis set group =>   1
Atom  13C    basis set group =>   1
Atom  14C    basis set group =>   1
Atom  15C    basis set group =>   1
Atom  16C    basis set group =>   1
Atom  17C    basis set group =>   1
Atom  18C    basis set group =>   1
Atom  19C    basis set group =>   1
Atom  20C    basis set group =>   1
Atom  21C    basis set group =>   1
Atom  22C    basis set group =>   1
Atom  23C    basis set group =>   1
Atom  24C    basis set group =>   1
Atom  25C    basis set group =>   1
Atom  26Cu   basis set group =>   4
Atom  27H    basis set group =>   5
Atom  28H    basis set group =>   5
Atom  29H    basis set group =>   5
Atom  30H    basis set group =>   5
Atom  31H    basis set group =>   5
Atom  32H    basis set group =>   5
Atom  33H    basis set group =>   5
Atom  34H    basis set group =>   5
Atom  35H    basis set group =>   5
Atom  36H    basis set group =>   5
Atom  37H    basis set group =>   5
Atom  38H    basis set group =>   5
Atom  39H    basis set group =>   5
Atom  40H    basis set group =>   5
Atom  41H    basis set group =>   5
Atom  42H    basis set group =>   5
Atom  43H    basis set group =>   5
Atom  44H    basis set group =>   5
Atom  45H    basis set group =>   5
Atom  46H    basis set group =>   5
Atom  47H    basis set group =>   5
Atom  48H    basis set group =>   5
Atom  49H    basis set group =>   5
Atom  50H    basis set group =>   5
Atom  51H    basis set group =>   5
Atom  52H    basis set group =>   5
Atom  53H    basis set group =>   5
Atom  54H    basis set group =>   5
Atom  55Cl   basis set group =>   6
Atom  56Cl   basis set group =>   6
------------------------------------------------------------------------------
                           ORCA GTO INTEGRAL CALCULATION
------------------------------------------------------------------------------

                         BASIS SET STATISTICS AND STARTUP INFO

 # of primitive gaussian shells          ...  517
 # of primitive gaussian functions       ...  965
 # of contracted shells                  ...  267
 # of contracted basis functions         ...  571
 Highest angular momentum                ...    3
 Maximum contraction depth               ...    6
 Integral package used                   ... LIBINT
 Integral threshhold            Thresh   ...  2.500e-11
 Primitive cut-off              TCut     ...  2.500e-12


------------------------------ INTEGRAL EVALUATION ----------------------------


 * One electron integrals 
 Pre-screening matrix                    ... done
 Shell pair data                         ... done (   0.011 sec)

-------------------------------------------------------------------------------
                                 ORCA SCF
-------------------------------------------------------------------------------

------------
SCF SETTINGS
------------
Hamiltonian:
 Density Functional     Method          .... DFT(GTOs)
 Exchange Functional    Exchange        .... PBE
   PBE kappa parameter   XKappa         ....  0.804000
   PBE mue parameter    XMuePBE         ....  0.219520
 Correlation Functional Correlation     .... PBE
   PBE beta parameter  CBetaPBE         ....  0.066725
 LDA part of GGA corr.  LDAOpt          .... PW91-LDA
 Gradients option       PostSCFGGA      .... off
 Hybrid DFT is turned on
   Fraction HF Exchange ScalHFX         ....  0.250000
   Scaling of DF-GGA-X  ScalDFX         ....  0.750000
   Scaling of DF-GGA-C  ScalDFC         ....  1.000000
   Scaling of DF-LDA-C  ScalLDAC        ....  1.000000
   Perturbative correction              ....  0.000000
   Density functional embedding theory  .... OFF
   NL short-range parameter             ....  6.900000


General Settings:
 Integral files         IntName         .... CuLCl2
 Hartree-Fock type      HFTyp           .... UHF
 Total Charge           Charge          ....    0
 Multiplicity           Mult            ....    2
 Number of Electrons    NEL             ....  251
 Basis Dimension        Dim             ....  571
 Nuclear Repulsion      ENuc            ....   4037.7059147118 Eh

Convergence Acceleration:
 DIIS                   CNVDIIS         .... on
   Start iteration      DIISMaxIt       ....    12
   Startup error        DIISStart       ....  0.200000
   # of expansion vecs  DIISMaxEq       ....     5
   Bias factor          DIISBfac        ....   1.050
   Max. coefficient     DIISMaxC        ....  10.000
 Newton-Raphson         CNVNR           .... off
 SOSCF                  CNVSOSCF        .... off
 Level Shifting         CNVShift        .... on
   Level shift para.    LevelShift      ....    0.2500
   Turn off err/grad.   ShiftErr        ....    0.0010
 Zerner damping         CNVZerner       .... off
 Static damping         CNVDamp         .... on
   Fraction old density DampFac         ....    0.7000
   Max. Damping (<1)    DampMax         ....    0.9800
   Min. Damping (>=0)   DampMin         ....    0.0000
   Turn off err/grad.   DampErr         ....    0.1000
 Fernandez-Rico         CNVRico         .... off

SCF Procedure:
 Maximum # iterations   MaxIter         ....   125
 SCF integral mode      SCFMode         .... Direct
   Integral package                     .... LIBINT
 Reset frequency        DirectResetFreq ....    20
 Integral Threshold     Thresh          ....  2.500e-11 Eh
 Primitive CutOff       TCut            ....  2.500e-12 Eh

Convergence Tolerance:
 Convergence Check Mode ConvCheckMode   .... Total+1el-Energy
 Convergence forced     ConvForced      .... 0
 Energy Change          TolE            ....  1.000e-08 Eh
 1-El. energy change                    ....  1.000e-05 Eh
 DIIS Error             TolErr          ....  5.000e-07


Diagonalization of the overlap matrix:
Smallest eigenvalue                        ... 2.728e-04
Time for diagonalization                   ...    0.065 sec
Threshold for overlap eigenvalues          ... 1.000e-08
Number of eigenvalues below threshold      ... 0
Time for construction of square roots      ...    0.033 sec
Total time needed                          ...    0.100 sec

-------------------
DFT GRID GENERATION
-------------------

General Integration Accuracy     IntAcc      ...  4.670
Radial Grid Type                 RadialGrid  ... Gauss-Chebyshev
Angular Grid (max. acc.)         AngularGrid ... Lebedev-302
Angular grid pruning method      GridPruning ... 3 (G Style)
Weight generation scheme         WeightScheme... Becke
Basis function cutoff            BFCut       ...    1.0000e-11
Integration weight cutoff        WCut        ...    1.0000e-14
Grids for H and He will be reduced by one unit

# of grid points (after initial pruning)     ... 279576 (   0.3 sec)
# of grid points (after weights+screening)   ... 235476 (   4.5 sec)
nearest neighbour list constructed           ...    0.0 sec
Grid point re-assignment to atoms done       ...    0.1 sec
Grid point division into batches done        ...    1.0 sec
Reduced shell lists constructed in    6.1 sec

Total number of grid points                  ...   235476
Total number of batches                      ...     3709
Average number of points per batch           ...       63
Average number of grid points per atom       ...     4131
Average number of shells per batch           ...   110.93 (41.55%)
Average number of basis functions per batch  ...   215.89 (37.81%)
Average number of large shells per batch     ...    69.30 (62.47%)
Average number of large basis fcns per batch ...   134.39 (62.25%)
Maximum spatial batch extension              ...  20.36, 21.87, 21.08 au
Average spatial batch extension              ...   2.09,  2.11,  2.12 au

Time for grid setup =   10.879 sec

------------------------------
INITIAL GUESS: MODEL POTENTIAL
------------------------------
Loading Hartree-Fock densities                     ... done
Calculating cut-offs                               ... done
Setting up the integral package                    ... done
Initializing the effective Hamiltonian             ... done
Starting the Coulomb interaction                   ... done (   3.5 sec)
Reading the grid                                   ... done
Mapping shells                                     ... done
Starting the XC term evaluation                    ... done (   6.8 sec)
  promolecular density results
     # of electrons  =    250.987250977
     EX              =   -267.560092360
     EC              =     -9.062088511
     EX+EC           =   -276.622180871
Transforming the Hamiltonian                       ... done (   0.0 sec)
Diagonalizing the Hamiltonian                      ... done (   0.1 sec)
Back transforming the eigenvectors                 ... done (   0.0 sec)
Now organizing SCF variables                       ... done
                      ------------------
                      INITIAL GUESS DONE (  21.5 sec)
                      ------------------

--------------------
CPCM SOLVATION MODEL
--------------------
CPCM parameters:
  Epsilon                                         ...      80.4000
  Refrac                                          ...       1.3300
  Rsolv                                           ...       1.3000
  Surface type                                    ...    GEPOL SES
  Epsilon function type                           ...         CPCM
Radii:
 Radius for C  used is    3.7795 Bohr (=   2.0000 Ang.)
 Radius for N  used is    3.4582 Bohr (=   1.8300 Ang.)
 Radius for O  used is    3.2503 Bohr (=   1.7200 Ang.)
 Radius for Cu used is    4.2009 Bohr (=   2.2230 Ang.)
 Radius for H  used is    2.4566 Bohr (=   1.3000 Ang.)
 Radius for Cl used is    3.8739 Bohr (=   2.0500 Ang.)
Calculating surface                               ...        done! (  0.3s)
GEPOL surface points                              ...         2099
GEPOL Volume                                      ...    3421.3949
GEPOL Surface-area                                ...    1513.7192
Calculating surface distance matrix               ...        done! (  0.1s)
Performing Cholesky decomposition & store         ...        done! (  0.1s)
Overall time for CPCM initialization              ...                 0.5s
--------------
SCF ITERATIONS
--------------
ITER       Energy         Delta-E        Max-DP      RMS-DP      [F,P]     Damp
               ***  Starting incremental Fock matrix formation  ***
  0  -3635.5591259691   0.000000000000 0.04818994  0.00059576  0.2096616 0.7000
  1  -3635.7568729547  -0.197746985592 0.03277690  0.00041926  0.0880729 0.7000
                               ***Turning on DIIS***
  2  -3635.8447292331  -0.087856278388 0.04135652  0.00077909  0.0329545 0.0000
  3  -3635.9850008514  -0.140271618302 0.02976452  0.00025807  0.0432065 0.0000
  4  -3636.0115903306  -0.026589479156 0.00688774  0.00009824  0.0234829 0.0000
  5  -3636.0133460985  -0.001755767894 0.00900729  0.00003969  0.0107834 0.0000
  6  -3636.0138362511  -0.000490152609 0.00349552  0.00002789  0.0078489 0.0000
  7  -3636.0140055141  -0.000169263023 0.00346702  0.00001454  0.0024675 0.0000
  8  -3636.0140800059  -0.000074491774 0.00272713  0.00001556  0.0038185 0.0000
  9  -3636.0141320910  -0.000052085111 0.00228239  0.00001209  0.0011569 0.0000
 10  -3636.0141545695  -0.000022478519 0.00243441  0.00000808  0.0005266 0.0000
 11  -3636.0141594394  -0.000004869925 0.00123805  0.00000565  0.0023610 0.0000
 12  -3636.0141664026  -0.000006963188 0.00072502  0.00000303  0.0003299 0.0000
 13  -3636.0141669178  -0.000000515202 0.00009957  0.00000066  0.0001619 0.0000
 14  -3636.0141669736  -0.000000055741 0.00008016  0.00000038  0.0000696 0.0000
 15  -3636.0141670062  -0.000000032597 0.00003562  0.00000017  0.0000182 0.0000
 16  -3636.0141670140  -0.000000007816 0.00004690  0.00000019  0.0000176 0.0000
 17  -3636.0141670218  -0.000000007837 0.00006158  0.00000024  0.0000138 0.0000
 18  -3636.0141670123   0.000000009508 0.00002527  0.00000008  0.0000101 0.0000
 19  -3636.0141669973   0.000000015041 0.00003692  0.00000015  0.0000089 0.0000
               *** Restarting incremental Fock matrix formation ***
                                   *** Resetting DIIS ***
 20  -3636.0141670470  -0.000000049691 0.00001832  0.00000013  0.0000072 0.0000
 21  -3636.0141670827  -0.000000035693 0.00000769  0.00000004  0.0000142 0.0000
 22  -3636.0141670931  -0.000000010396 0.00001742  0.00000008  0.0000049 0.0000
 23  -3636.0141671040  -0.000000010900 0.00002340  0.00000008  0.0000038 0.0000
 24  -3636.0141671053  -0.000000001305 0.00002035  0.00000008  0.0000039 0.0000
 25  -3636.0141670659   0.000000039327 0.00001764  0.00000007  0.0000021 0.0000
                            ***DIIS convergence achieved***

               *****************************************************
               *                     SUCCESS                       *
               *           SCF CONVERGED AFTER  26 CYCLES          *
               *****************************************************

Setting up the final grid:

General Integration Accuracy     IntAcc      ...  5.010
Radial Grid Type                 RadialGrid  ... Gauss-Chebyshev
Angular Grid (max. acc.)         AngularGrid ... Lebedev-434
Angular grid pruning method      GridPruning ... 3 (G Style)
Weight generation scheme         WeightScheme... Becke
Basis function cutoff            BFCut       ...    1.0000e-11
Integration weight cutoff        WCut        ...    1.0000e-14
Grids for H and He will be reduced by one unit

# of grid points (after initial pruning)     ... 505206 (   0.3 sec)
# of grid points (after weights+screening)   ... 424244 (   8.0 sec)
nearest neighbour list constructed           ...    0.0 sec
Grid point re-assignment to atoms done       ...    0.1 sec
Grid point division into batches done        ...    3.3 sec
Reduced shell lists constructed in   11.9 sec

Total number of grid points                  ...   424244
Total number of batches                      ...     6660
Average number of points per batch           ...       63
Average number of grid points per atom       ...     7443
Average number of shells per batch           ...   107.43 (40.24%)
Average number of basis functions per batch  ...   208.22 (36.47%)
Average number of large shells per batch     ...    66.69 (62.08%)
Average number of large basis fcns per batch ...   128.83 (61.87%)
Maximum spatial batch extension              ...  21.52, 21.84, 22.39 au
Average spatial batch extension              ...   1.71,  1.72,  1.72 au

Final grid set up in   20.3 sec
Final integration                            ... done (  21.6 sec)
Change in XC energy                          ...     0.000587986
Integrated number of electrons               ...   251.000165185
Previous integrated no of electrons          ...   251.000721781

----------------
TOTAL SCF ENERGY
----------------

Total Energy       :        -3636.01357900 Eh          -98940.95955 eV

Components:
Nuclear Repulsion  :         4037.70591471 Eh          109871.56370 eV
Electronic Energy  :        -7673.71949371 Eh         -208812.52325 eV
One Electron Energy:       -13057.36099439 Eh         -355308.85621 eV
Two Electron Energy:         5383.64150068 Eh          146496.33296 eV
CPCM Dielectric    :           -0.04621556 Eh              -1.25759 eV

Virial components:
Potential Energy   :        -7255.24018293 Eh         -197425.12228 eV
Kinetic Energy     :         3619.22660393 Eh           98484.16273 eV
Virial Ratio       :            2.00463828


DFT components:
N(Alpha)           :      126.000081686264 electrons
N(Beta)            :      125.000083498947 electrons
N(Total)           :      251.000165185211 electrons
E(X)               :     -202.673081504189 Eh       
E(C)               :       -9.057035962076 Eh       
E(XC)              :     -211.730117466265 Eh       
DFET-embed. en.    :        0.000000000000 Eh       
CPCM Solvation Model Properties:
Surface-charge          :           -0.03258961
Charge-correction       :           -0.00018047 Eh              -0.00491 eV
Free-energy (cav+disp)  :            0.00667420 Eh               0.18161 eV
Corrected G(solv)       :        -3636.00708527 Eh          -98940.78284 eV

---------------
SCF CONVERGENCE
---------------

  Last Energy change         ...    8.2648e-08  Tolerance :   1.0000e-08
  Last MAX-Density change    ...    3.6006e-06  Tolerance :   1.0000e-07
  Last RMS-Density change    ...    1.6278e-08  Tolerance :   5.0000e-09
  Last DIIS Error            ...    5.8381e-07  Tolerance :   5.0000e-07

             **** THE GBW FILE WAS UPDATED (CuLCl2.gbw) ****
             **** DENSITY FILE WAS UPDATED (CuLCl2.scfp) ****
             **** ENERGY FILE WAS UPDATED (CuLCl2.en.tmp) ****
----------------------
UHF SPIN CONTAMINATION
----------------------

Warning: in a DFT calculation there is little theoretical justification to 
         calculate <S**2> as in Hartree-Fock theory. We will do it anyways
         but you should keep in mind that the values have only limited relevance

Expectation value of <S**2>     :     0.752585
Ideal value S*(S+1) for S=0.5   :     0.750000
Deviation                       :     0.002585

             **** THE GBW FILE WAS UPDATED (CuLCl2.gbw) ****
             **** DENSITY FILE WAS UPDATED (CuLCl2.scfp) ****
----------------
ORBITAL ENERGIES
----------------
                 SPIN UP ORBITALS
  NO   OCC          E(Eh)            E(eV) 
   0   1.0000    -323.470705     -8802.0854 
   1   1.0000    -101.613261     -2765.0374 
   2   1.0000    -101.612839     -2765.0259 
   3   1.0000     -39.086776     -1063.6053 
   4   1.0000     -34.274121      -932.6462 
   5   1.0000     -34.273826      -932.6382 
   6   1.0000     -34.247388      -931.9188 
   7   1.0000     -19.225716      -523.1583 
   8   1.0000     -14.469263      -393.7287 
   9   1.0000     -14.469136      -393.7252 
  10   1.0000     -10.336685      -281.2755 
  11   1.0000     -10.287444      -279.9356 
  12   1.0000     -10.287427      -279.9351 
  13   1.0000     -10.283979      -279.8413 
  14   1.0000     -10.283873      -279.8384 
  15   1.0000     -10.280399      -279.7439 
  16   1.0000     -10.280009      -279.7333 
  17   1.0000     -10.274276      -279.5773 
  18   1.0000     -10.274076      -279.5718 
  19   1.0000     -10.255050      -279.0541 
  20   1.0000     -10.254991      -279.0525 
  21   1.0000     -10.246916      -278.8328 
  22   1.0000     -10.246806      -278.8298 
  23   1.0000     -10.246719      -278.8274 
  24   1.0000     -10.246667      -278.8260 
  25   1.0000     -10.245014      -278.7810 
  26   1.0000     -10.244958      -278.7795 
  27   1.0000     -10.244562      -278.7687 
  28   1.0000     -10.244504      -278.7671 
  29   1.0000     -10.244361      -278.7632 
  30   1.0000     -10.244308      -278.7618 
  31   1.0000     -10.234521      -278.4955 
  32   1.0000     -10.234246      -278.4880 
  33   1.0000      -9.462768      -257.4950 
  34   1.0000      -9.462352      -257.4837 
  35   1.0000      -7.200587      -195.9379 
  36   1.0000      -7.200185      -195.9270 
  37   1.0000      -7.196864      -195.8366 
  38   1.0000      -7.196565      -195.8285 
  39   1.0000      -7.196445      -195.8252 
  40   1.0000      -7.196153      -195.8173 
  41   1.0000      -4.475533      -121.7855 
  42   1.0000      -2.970048       -80.8191 
  43   1.0000      -2.969635       -80.8079 
  44   1.0000      -2.919088       -79.4324 
  45   1.0000      -1.086132       -29.5552 
  46   1.0000      -1.015827       -27.6421 
  47   1.0000      -0.995127       -27.0788 
  48   1.0000      -0.888847       -24.1868 
  49   1.0000      -0.885016       -24.0825 
  50   1.0000      -0.862898       -23.4807 
  51   1.0000      -0.857846       -23.3432 
  52   1.0000      -0.795935       -21.6585 
  53   1.0000      -0.790509       -21.5108 
  54   1.0000      -0.770952       -20.9787 
  55   1.0000      -0.769495       -20.9390 
  56   1.0000      -0.767342       -20.8804 
  57   1.0000      -0.762770       -20.7560 
  58   1.0000      -0.750356       -20.4182 
  59   1.0000      -0.729815       -19.8593 
  60   1.0000      -0.727889       -19.8069 
  61   1.0000      -0.725896       -19.7526 
  62   1.0000      -0.694218       -18.8906 
  63   1.0000      -0.654682       -17.8148 
  64   1.0000      -0.638475       -17.3738 
  65   1.0000      -0.631799       -17.1921 
  66   1.0000      -0.627109       -17.0645 
  67   1.0000      -0.614248       -16.7145 
  68   1.0000      -0.606239       -16.4966 
  69   1.0000      -0.602739       -16.4014 
  70   1.0000      -0.577884       -15.7250 
  71   1.0000      -0.542473       -14.7614 
  72   1.0000      -0.540814       -14.7163 
  73   1.0000      -0.538480       -14.6528 
  74   1.0000      -0.532581       -14.4923 
  75   1.0000      -0.515612       -14.0305 
  76   1.0000      -0.511954       -13.9310 
  77   1.0000      -0.510968       -13.9041 
  78   1.0000      -0.488817       -13.3014 
  79   1.0000      -0.486619       -13.2416 
  80   1.0000      -0.483475       -13.1560 
  81   1.0000      -0.483251       -13.1499 
  82   1.0000      -0.475051       -12.9268 
  83   1.0000      -0.472024       -12.8444 
  84   1.0000      -0.463244       -12.6055 
  85   1.0000      -0.448805       -12.2126 
  86   1.0000      -0.444904       -12.1064 
  87   1.0000      -0.439317       -11.9544 
  88   1.0000      -0.438447       -11.9308 
  89   1.0000      -0.431365       -11.7380 
  90   1.0000      -0.423016       -11.5108 
  91   1.0000      -0.422091       -11.4857 
  92   1.0000      -0.421134       -11.4596 
  93   1.0000      -0.419553       -11.4166 
  94   1.0000      -0.414347       -11.2750 
  95   1.0000      -0.410593       -11.1728 
  96   1.0000      -0.406962       -11.0740 
  97   1.0000      -0.404562       -11.0087 
  98   1.0000      -0.404359       -11.0032 
  99   1.0000      -0.401588       -10.9278 
 100   1.0000      -0.399196       -10.8627 
 101   1.0000      -0.396598       -10.7920 
 102   1.0000      -0.390706       -10.6316 
 103   1.0000      -0.387744       -10.5510 
 104   1.0000      -0.385317       -10.4850 
 105   1.0000      -0.377592       -10.2748 
 106   1.0000      -0.372428       -10.1343 
 107   1.0000      -0.371108       -10.0983 
 108   1.0000      -0.370133       -10.0718 
 109   1.0000      -0.361213        -9.8291 
 110   1.0000      -0.359598        -9.7852 
 111   1.0000      -0.356122        -9.6906 
 112   1.0000      -0.355614        -9.6767 
 113   1.0000      -0.346523        -9.4294 
 114   1.0000      -0.311317        -8.4714 
 115   1.0000      -0.303778        -8.2662 
 116   1.0000      -0.294026        -8.0009 
 117   1.0000      -0.281872        -7.6701 
 118   1.0000      -0.278674        -7.5831 
 119   1.0000      -0.276545        -7.5252 
 120   1.0000      -0.276240        -7.5169 
 121   1.0000      -0.274659        -7.4739 
 122   1.0000      -0.272939        -7.4271 
 123   1.0000      -0.272435        -7.4133 
 124   1.0000      -0.271669        -7.3925 
 125   1.0000      -0.267527        -7.2798 
 126   0.0000      -0.033396        -0.9088 
 127   0.0000      -0.022995        -0.6257 
 128   0.0000      -0.019542        -0.5318 
 129   0.0000      -0.014911        -0.4058 
 130   0.0000      -0.012903        -0.3511 
 131   0.0000       0.028997         0.7890 
 132   0.0000       0.064252         1.7484 
 133   0.0000       0.069869         1.9012 
 134   0.0000       0.075805         2.0628 
 135   0.0000       0.076393         2.0788 
 136   0.0000       0.096716         2.6318 
 137   0.0000       0.098042         2.6679 
 138   0.0000       0.101995         2.7754 
 139   0.0000       0.106302         2.8926 
 140   0.0000       0.107733         2.9316 
 141   0.0000       0.110294         3.0013 
 142   0.0000       0.110997         3.0204 
 143   0.0000       0.118236         3.2174 
 144   0.0000       0.122770         3.3408 
 145   0.0000       0.130156         3.5417 
 146   0.0000       0.132755         3.6124 
 147   0.0000       0.134373         3.6565 
 148   0.0000       0.141971         3.8632 
 149   0.0000       0.142163         3.8684 
 150   0.0000       0.148417         4.0386 
 151   0.0000       0.153608         4.1799 
 152   0.0000       0.154867         4.2141 
 153   0.0000       0.156033         4.2459 
 154   0.0000       0.158528         4.3138 
 155   0.0000       0.162188         4.4134 
 156   0.0000       0.163665         4.4535 
 157   0.0000       0.164346         4.4721 
 158   0.0000       0.165282         4.4976 
 159   0.0000       0.176350         4.7987 
 160   0.0000       0.183445         4.9918 
 161   0.0000       0.190799         5.1919 
 162   0.0000       0.191580         5.2132 
 163   0.0000       0.197093         5.3632 
 164   0.0000       0.197774         5.3817 
 165   0.0000       0.199114         5.4182 
 166   0.0000       0.204142         5.5550 
 167   0.0000       0.206194         5.6108 
 168   0.0000       0.212366         5.7788 
 169   0.0000       0.224589         6.1114 
 170   0.0000       0.226198         6.1552 
 171   0.0000       0.231596         6.3021 
 172   0.0000       0.241982         6.5847 
 173   0.0000       0.245562         6.6821 
 174   0.0000       0.248246         6.7551 
 175   0.0000       0.257558         7.0085 
 176   0.0000       0.263433         7.1684 
 177   0.0000       0.266586         7.2542 
 178   0.0000       0.271276         7.3818 
 179   0.0000       0.283926         7.7260 
 180   0.0000       0.290308         7.8997 
 181   0.0000       0.299104         8.1390 
 182   0.0000       0.301616         8.2074 
 183   0.0000       0.309217         8.4142 
 184   0.0000       0.316739         8.6189 
 185   0.0000       0.322580         8.7778 
 186   0.0000       0.330621         8.9967 
 187   0.0000       0.334000         9.0886 
 188   0.0000       0.335028         9.1166 
 189   0.0000       0.339733         9.2446 
 190   0.0000       0.354122         9.6361 
 191   0.0000       0.377673        10.2770 
 192   0.0000       0.379812        10.3352 
 193   0.0000       0.403597        10.9824 
 194   0.0000       0.411010        11.1842 
 195   0.0000       0.421488        11.4693 
 196   0.0000       0.424849        11.5607 
 197   0.0000       0.439575        11.9614 
 198   0.0000       0.440819        11.9953 
[...]
      px      :     0.000087
      py      :    -0.000037
      dz2     :     0.000005  d :     0.000221
      dxz     :     0.000015
      dyz     :     0.000006
      dx2y2   :     0.000182
      dxy     :     0.000014
 16 C s       :     0.000059  s :     0.000059
      pz      :     0.000322  p :     0.000575
      px      :     0.000233
      py      :     0.000020
      dz2     :     0.000003  d :    -0.000010
      dxz     :    -0.000014
      dyz     :    -0.000005
      dx2y2   :    -0.000004
      dxy     :     0.000009
 17 C s       :    -0.000017  s :    -0.000017
      pz      :    -0.000393  p :    -0.000444
      px      :    -0.000022
      py      :    -0.000029
      dz2     :     0.000002  d :     0.000018
      dxz     :     0.000002
      dyz     :     0.000007
      dx2y2   :     0.000006
      dxy     :     0.000002
 18 C s       :     0.000059  s :     0.000059
      pz      :     0.000322  p :     0.000574
      px      :     0.000235
      py      :     0.000017
      dz2     :     0.000002  d :    -0.000011
      dxz     :    -0.000019
      dyz     :    -0.000000
      dx2y2   :     0.000001
      dxy     :     0.000006
 19 C s       :    -0.000016  s :    -0.000016
      pz      :    -0.000560  p :    -0.000492
      px      :     0.000014
      py      :     0.000053
      dz2     :     0.000006  d :     0.000221
      dxz     :     0.000012
      dyz     :     0.000012
      dx2y2   :     0.000085
      dxy     :     0.000107
 20 C s       :     0.001604  s :     0.001604
      pz      :     0.006820  p :     0.008576
      px      :     0.001524
      py      :     0.000232
      dz2     :     0.000019  d :    -0.000096
      dxz     :    -0.000039
      dyz     :    -0.000040
      dx2y2   :    -0.000025
      dxy     :    -0.000012
 21 C s       :    -0.000018  s :    -0.000018
      pz      :     0.000076  p :    -0.000513
      px      :    -0.000544
      py      :    -0.000045
      dz2     :     0.000081  d :     0.000222
      dxz     :     0.000019
      dyz     :     0.000043
      dx2y2   :     0.000054
      dxy     :     0.000025
 22 C s       :     0.000059  s :     0.000059
      pz      :     0.000293  p :     0.000584
      px      :     0.000271
      py      :     0.000020
      dz2     :    -0.000009  d :    -0.000011
      dxz     :    -0.000007
      dyz     :    -0.000000
      dx2y2   :     0.000004
      dxy     :     0.000000
 23 C s       :    -0.000018  s :    -0.000018
      pz      :    -0.000101  p :    -0.000464
      px      :    -0.000322
      py      :    -0.000040
      dz2     :     0.000003  d :     0.000019
      dxz     :     0.000002
      dyz     :     0.000003
      dx2y2   :     0.000005
      dxy     :     0.000006
 24 C s       :     0.000060  s :     0.000060
      pz      :     0.000293  p :     0.000585
      px      :     0.000271
      py      :     0.000021
      dz2     :    -0.000011  d :    -0.000011
      dxz     :    -0.000012
      dyz     :     0.000004
      dx2y2   :    -0.000000
      dxy     :     0.000008
 25 C s       :    -0.000016  s :    -0.000016
      pz      :     0.000051  p :    -0.000503
      px      :    -0.000576
      py      :     0.000023
      dz2     :     0.000063  d :     0.000223
      dxz     :     0.000037
      dyz     :     0.000051
      dx2y2   :     0.000063
      dxy     :     0.000009
 26 Cus       :    -0.002834  s :    -0.002834
      pz      :     0.006460  p :     0.021973
      px      :     0.016149
      py      :    -0.000636
      dz2     :     0.396301  d :     0.598933
      dxz     :     0.066157
      dyz     :     0.001282
      dx2y2   :     0.117155
      dxy     :     0.018039
      f0      :     0.000017  f :     0.000030
      f+1     :    -0.000007
      f-1     :     0.000002
      f+2     :    -0.000002
      f-2     :    -0.000000
      f+3     :     0.000013
      f-3     :     0.000007
 27 H s       :     0.009116  s :     0.009116
      pz      :    -0.000213  p :    -0.000236
      px      :    -0.000022
      py      :    -0.000000
 28 H s       :     0.002201  s :     0.002201
      pz      :    -0.000023  p :    -0.000146
      px      :    -0.000047
      py      :    -0.000077
 29 H s       :     0.002219  s :     0.002219
      pz      :    -0.000023  p :    -0.000148
      px      :    -0.000042
      py      :    -0.000083
 30 H s       :     0.009203  s :     0.009203
      pz      :    -0.000225  p :    -0.000236
      px      :    -0.000019
      py      :     0.000009
 31 H s       :     0.009179  s :     0.009179
      pz      :    -0.000025  p :    -0.000236
      px      :    -0.000192
      py      :    -0.000020
 32 H s       :     0.002221  s :     0.002221
      pz      :    -0.000052  p :    -0.000148
      px      :    -0.000019
      py      :    -0.000078
 33 H s       :     0.009086  s :     0.009086
      pz      :    -0.000028  p :    -0.000235
      px      :    -0.000223
      py      :     0.000016
 34 H s       :     0.002199  s :     0.002199
      pz      :    -0.000050  p :    -0.000146
      px      :    -0.000016
      py      :    -0.000080
 35 H s       :     0.000007  s :     0.000007
      pz      :     0.000005  p :    -0.000003
      px      :    -0.000005
      py      :    -0.000003
 36 H s       :    -0.000011  s :    -0.000011
      pz      :     0.000003  p :     0.000003
      px      :     0.000005
      py      :    -0.000006
 37 H s       :     0.000005  s :     0.000005
      pz      :    -0.000006  p :    -0.000003
      px      :     0.000005
      py      :    -0.000002
 38 H s       :    -0.000011  s :    -0.000011
      pz      :     0.000003  p :     0.000003
      px      :     0.000006
      py      :    -0.000006
 39 H s       :     0.000005  s :     0.000005
      pz      :     0.000006  p :    -0.000003
      px      :    -0.000004
      py      :    -0.000005
 40 H s       :     0.000007  s :     0.000007
      pz      :    -0.000006  p :    -0.000003
      px      :     0.000008
      py      :    -0.000005
 41 H s       :     0.002518  s :     0.002518
      pz      :    -0.000084  p :    -0.000231
      px      :    -0.000090
      py      :    -0.000057
 42 H s       :     0.002553  s :     0.002553
      pz      :    -0.000081  p :    -0.000232
      px      :    -0.000084
      py      :    -0.000066
 43 H s       :     0.002568  s :     0.002568
      pz      :    -0.000075  p :    -0.000234
      px      :    -0.000102
      py      :    -0.000056
 44 H s       :     0.002553  s :     0.002553
      pz      :    -0.000073  p :    -0.000233
      px      :    -0.000092
      py      :    -0.000068
 45 H s       :     0.000247  s :     0.000247
      pz      :    -0.000009  p :    -0.000013
      px      :     0.000007
      py      :    -0.000011
 46 H s       :     0.000064  s :     0.000064
      pz      :     0.000007  p :     0.000016
      px      :     0.000007
      py      :     0.000002
 47 H s       :     0.000019  s :     0.000019
      pz      :    -0.000011  p :    -0.000014
      px      :    -0.000002
      py      :    -0.000001
 48 H s       :     0.000063  s :     0.000063
      pz      :     0.000007  p :     0.000016
      px      :     0.000008
      py      :     0.000001
 49 H s       :     0.000247  s :     0.000247
      pz      :    -0.000011  p :    -0.000013
      px      :     0.000003
      py      :    -0.000006
 50 H s       :     0.000248  s :     0.000248
      pz      :     0.000010  p :    -0.000013
      px      :    -0.000013
      py      :    -0.000011
 51 H s       :     0.000063  s :     0.000063
      pz      :     0.000009  p :     0.000016
      px      :     0.000006
      py      :     0.000001
 52 H s       :     0.000020  s :     0.000020
      pz      :    -0.000003  p :    -0.000014
      px      :    -0.000010
      py      :    -0.000001
 53 H s       :     0.000065  s :     0.000065
      pz      :     0.000009  p :     0.000016
      px      :     0.000006
      py      :     0.000001
 54 H s       :     0.000246  s :     0.000246
      pz      :     0.000009  p :    -0.000013
      px      :    -0.000015
      py      :    -0.000007
 55 Cls       :     0.000060  s :     0.000060
      pz      :     0.004861  p :     0.012280
      px      :     0.009426
      py      :    -0.002006
      dz2     :    -0.000026  d :    -0.000102
      dxz     :    -0.000044
      dyz     :    -0.000027
      dx2y2   :    -0.000018
      dxy     :     0.000012
 56 Cls       :     0.000060  s :     0.000060
      pz      :     0.004867  p :     0.012262
      px      :     0.009811
      py      :    -0.002416
      dz2     :    -0.000021  d :    -0.000102
      dxz     :    -0.000013
      dyz     :    -0.000058
      dx2y2   :    -0.000019
      dxy     :     0.000009


                      *****************************
                      * MAYER POPULATION ANALYSIS *
                      *****************************

  NA   - Mulliken gross atomic population
  ZA   - Total nuclear charge
  QA   - Mulliken gross atomic charge
  VA   - Mayer's total valence
  BVA  - Mayer's bonded valence
  FA   - Mayer's free valence

  ATOM       NA         ZA         QA         VA         BVA        FA
  0 C      6.4377     6.0000    -0.4377     3.9750     3.9750     0.0000
  1 C      5.7809     6.0000     0.2191     3.7221     3.7221     0.0000
  2 N      7.5377     7.0000    -0.5377     3.2308     3.2087     0.0221
  3 C      5.7812     6.0000     0.2188     3.7220     3.7220     0.0000
  4 C      6.4362     6.0000    -0.4362     3.9751     3.9751     0.0000
  5 C      5.7812     6.0000     0.2188     3.7219     3.7218     0.0000
  6 N      7.5374     7.0000    -0.5374     3.2307     3.2087     0.0220
  7 C      5.7821     6.0000     0.2179     3.7229     3.7228     0.0000
  8 C      5.7990     6.0000     0.2010     3.9351     3.9351     0.0000
  9 C      5.9497     6.0000     0.0503     3.9532     3.9532     0.0000
 10 C      5.9499     6.0000     0.0501     3.9533     3.9533     0.0000
 11 O      8.2287     8.0000    -0.2287     2.2885     2.2885     0.0000
 12 C      5.7862     6.0000     0.2138     3.7535     3.7534     0.0001
 13 C      5.7868     6.0000     0.2132     3.7530     3.7529     0.0001
 14 C      6.1422     6.0000    -0.1422     3.9359     3.9358     0.0001
 15 C      6.0201     6.0000    -0.0201     3.8604     3.8604     0.0000
 16 C      6.0382     6.0000    -0.0382     3.8474     3.8474     0.0000
 17 C      6.0293     6.0000    -0.0293     3.8194     3.8194     0.0000
 18 C      6.0382     6.0000    -0.0382     3.8471     3.8471     0.0000
 19 C      6.0199     6.0000    -0.0199     3.8604     3.8604     0.0000
 20 C      6.1410     6.0000    -0.1410     3.9357     3.9355     0.0001
 21 C      6.0202     6.0000    -0.0202     3.8603     3.8603     0.0000
 22 C      6.0386     6.0000    -0.0386     3.8475     3.8475     0.0000
 23 C      6.0293     6.0000    -0.0293     3.8193     3.8193     0.0000
 24 C      6.0384     6.0000    -0.0384     3.8470     3.8470     0.0000
 25 C      6.0202     6.0000    -0.0202     3.8604     3.8604     0.0000
 26 Cu    28.5695    29.0000     0.4305     3.0299     2.6243     0.4056
 27 H      0.9138     1.0000     0.0862     1.0004     1.0003     0.0002
 28 H      0.9335     1.0000     0.0665     1.0444     1.0444     0.0000
 29 H      0.9331     1.0000     0.0669     1.0439     1.0439     0.0000
 30 H      0.9140     1.0000     0.0860     1.0005     1.0004     0.0002
 31 H      0.9137     1.0000     0.0863     1.0005     1.0004     0.0002
 32 H      0.9332     1.0000     0.0668     1.0437     1.0437     0.0000
 33 H      0.9135     1.0000     0.0865     1.0004     1.0002     0.0002
 34 H      0.9342     1.0000     0.0658     1.0447     1.0447     0.0000
 35 H      0.9383     1.0000     0.0617     0.9983     0.9983     0.0000
 36 H      0.9367     1.0000     0.0633     0.9894     0.9894     0.0000
 37 H      0.9381     1.0000     0.0619     0.9982     0.9982     0.0000
 38 H      0.9368     1.0000     0.0632     0.9894     0.9894     0.0000
 39 H      0.9382     1.0000     0.0618     0.9983     0.9983     0.0000
 40 H      0.9382     1.0000     0.0618     0.9983     0.9983     0.0000
 41 H      0.9345     1.0000     0.0655     1.0339     1.0339     0.0000
 42 H      0.9359     1.0000     0.0641     1.0355     1.0355     0.0000
 43 H      0.9356     1.0000     0.0644     1.0358     1.0358     0.0000
 44 H      0.9349     1.0000     0.0651     1.0342     1.0342     0.0000
 45 H      0.9567     1.0000     0.0433     0.9902     0.9902     0.0000
 46 H      0.9507     1.0000     0.0493     0.9809     0.9809     0.0000
 47 H      0.9491     1.0000     0.0509     0.9806     0.9806     0.0000
 48 H      0.9507     1.0000     0.0493     0.9809     0.9809     0.0000
 49 H      0.9565     1.0000     0.0435     0.9901     0.9901     0.0000
 50 H      0.9565     1.0000     0.0435     0.9901     0.9901     0.0000
 51 H      0.9506     1.0000     0.0494     0.9809     0.9809     0.0000
 52 H      0.9490     1.0000     0.0510     0.9806     0.9806     0.0000
 53 H      0.9506     1.0000     0.0494     0.9809     0.9809     0.0000
 54 H      0.9565     1.0000     0.0435     0.9901     0.9901     0.0000
 55 Cl    17.4990    17.0000    -0.4990     0.8959     0.8957     0.0003
 56 Cl    17.4987    17.0000    -0.4987     0.8964     0.8962     0.0003

  Mayer bond orders larger than 0.100000
B(  0-C ,  1-C ) :   0.9880 B(  0-C ,  5-C ) :   0.9879 B(  0-C ,  8-C ) :   0.8813 
B(  0-C , 10-C ) :   1.0786 B(  1-C ,  2-N ) :   0.8604 B(  1-C , 27-H ) :   0.9206 
B(  1-C , 28-H ) :   0.9284 B(  2-N ,  3-C ) :   0.8600 B(  2-N , 13-C ) :   0.8637 
B(  2-N , 26-Cu) :   0.5430 B(  3-C ,  4-C ) :   0.9880 B(  3-C , 29-H ) :   0.9285 
B(  3-C , 30-H ) :   0.9206 B(  4-C ,  7-C ) :   0.9881 B(  4-C ,  8-C ) :   0.8814 
B(  4-C ,  9-C ) :   1.0784 B(  5-C ,  6-N ) :   0.8602 B(  5-C , 31-H ) :   0.9203 
B(  5-C , 32-H ) :   0.9286 B(  6-N ,  7-C ) :   0.8606 B(  6-N , 12-C ) :   0.8640 
B(  6-N , 26-Cu) :   0.5422 B(  7-C , 33-H ) :   0.9204 B(  7-C , 34-H ) :   0.9283 
B(  8-C , 11-O ) :   2.2089 B(  9-C , 35-H ) :   0.9540 B(  9-C , 36-H ) :   0.9573 
B(  9-C , 37-H ) :   0.9541 B( 10-C , 38-H ) :   0.9573 B( 10-C , 39-H ) :   0.9541 
B( 10-C , 40-H ) :   0.9540 B( 12-C , 14-C ) :   1.0320 B( 12-C , 41-H ) :   0.9250 
B( 12-C , 42-H ) :   0.9250 B( 13-C , 20-C ) :   1.0318 B( 13-C , 43-H ) :   0.9246 
B( 13-C , 44-H ) :   0.9249 B( 14-C , 15-C ) :   1.3822 B( 14-C , 19-C ) :   1.3828 
B( 15-C , 16-C ) :   1.3890 B( 15-C , 45-H ) :   0.9866 B( 16-C , 17-C ) :   1.3827 
B( 16-C , 46-H ) :   0.9877 B( 17-C , 18-C ) :   1.3828 B( 17-C , 47-H ) :   0.9895 
B( 18-C , 19-C ) :   1.3888 B( 18-C , 48-H ) :   0.9876 B( 19-C , 49-H ) :   0.9866 
B( 20-C , 21-C ) :   1.3824 B( 20-C , 25-C ) :   1.3827 B( 21-C , 22-C ) :   1.3890 
B( 21-C , 50-H ) :   0.9866 B( 22-C , 23-C ) :   1.3828 B( 22-C , 51-H ) :   0.9876 
B( 23-C , 24-C ) :   1.3827 B( 23-C , 52-H ) :   0.9895 B( 24-C , 25-C ) :   1.3888 
B( 24-C , 53-H ) :   0.9877 B( 25-C , 54-H ) :   0.9866 B( 26-Cu, 55-Cl) :   0.6594 
B( 26-Cu, 56-Cl) :   0.6594 

-------
TIMINGS
-------

Total SCF time: 0 days 0 hours 23 min 7 sec 

Total time                  ....    1387.586 sec
Sum of individual times     ....    1385.794 sec  ( 99.9%)

Fock matrix formation       ....    1350.375 sec  ( 97.3%)
  XC integration            ....     109.385 sec  (  8.1% of F)
    Basis function eval.    ....      36.221 sec  ( 33.1% of XC)
    Density eval.           ....      41.797 sec  ( 38.2% of XC)
    XC-Functional eval.     ....       3.828 sec  (  3.5% of XC)
    XC-Potential eval.      ....      25.119 sec  ( 23.0% of XC)
Diagonalization             ....       2.605 sec  (  0.2%)
Density matrix formation    ....       0.472 sec  (  0.0%)
Population analysis         ....       0.189 sec  (  0.0%)
Initial guess               ....       0.232 sec  (  0.0%)
Orbital Transformation      ....       0.000 sec  (  0.0%)
Orbital Orthonormalization  ....       0.183 sec  (  0.0%)
DIIS solution               ....       1.038 sec  (  0.1%)
Grid generation             ....      30.884 sec  (  2.2%)


-------------------------------------------------------------------------------
                          DFT DISPERSION CORRECTION                            
                                                                               
                              DFTD3 V3.1  Rev 1                                
                          USING Becke-Johnson damping                          
-------------------------------------------------------------------------------
The PBE0 functional is recognized
Active option DFTDOPT                   ...         4   

molecular C6(AA) [au] = 40010.977401 


            DFT-D V3
 parameters
 s6 scaling factor         :     1.0000 
 a1 scaling factor         :     0.4145 
 s8 scaling factor         :     1.2177 
 a2 scaling factor         :     4.8593 
 ad hoc parameters k1-k3   :    16.0000     1.3333    -4.0000 

 Edisp/kcal,au: -54.712950697015  -0.087190627588 
 E6   /kcal   : -34.071366437 
 E8   /kcal   : -20.641584260 
 % E8         :  37.727053645 

-------------------------   ----------------
Dispersion correction           -0.087190628
-------------------------   ----------------


-------------------------   --------------------
FINAL SINGLE POINT ENERGY     -3636.108257452232
-------------------------   --------------------

                                *** OPTIMIZATION RUN DONE ***

                            ***************************************
                            *     ORCA property calculations      *
                            ***************************************

                                    ---------------------
                                    Active property flags
                                    ---------------------
   (+) Dipole Moment


------------------------------------------------------------------------------
                       ORCA ELECTRIC PROPERTIES CALCULATION
------------------------------------------------------------------------------

Dipole Moment Calculation                       ... on
Quadrupole Moment Calculation                   ... off
Polarizability Calculation                      ... off
GBWName                                         ... CuLCl2.gbw
Electron density file                           ... CuLCl2.scfp
The origin for moment calculation is the CENTER OF MASS  = (-0.506004, -0.054183  3.033563)

-------------
DIPOLE MOMENT
-------------
                                X             Y             Z
Electronic contribution:     17.92336      -4.44440      25.90374
Nuclear contribution   :    -20.23858       5.02365     -29.25413
                        -----------------------------------------
Total Dipole Moment    :     -2.31522       0.57925      -3.35039
                        -----------------------------------------
Magnitude (a.u.)       :      4.11350
Magnitude (Debye)      :     10.45569



--------------------
Rotational spectrum 
--------------------
 
Rotational constants in cm-1:     0.008029     0.003117     0.002853 
Rotational constants in MHz :   240.702332    93.439343    85.523510 

 Dipole components along the rotational axes: 
x,y,z [a.u.] :     0.005050    -4.113491    -0.007145 
x,y,z [Debye]:     0.012836   -10.455663    -0.018160 

 

Timings for individual modules:

Sum of individual times         ...    63967.904 sec (=1066.132 min)
GTO integral calculation        ...       17.758 sec (=   0.296 min)   0.0 %
SCF iterations                  ...    48349.439 sec (= 805.824 min)  75.6 %
SCF Gradient evaluation         ...    15583.955 sec (= 259.733 min)  24.4 %
Geometry relaxation             ...       16.751 sec (=   0.279 min)   0.0 %
                             ****ORCA TERMINATED NORMALLY****
TOTAL RUN TIME: 0 days 17 hours 46 minutes 24 seconds 648 msec
