
                                 *****************
                                 * O   R   C   A *
                                 *****************

           --- An Ab Initio, DFT and Semiempirical electronic structure package ---

                  #######################################################
                  #                        -***-                        #
                  #          Department of theory and spectroscopy      #
                  #               Directorship: Frank Neese             #
                  #        Max Planck Institute fuer Kohlenforschung    #
                  #                Kaiser Wilhelm Platz 1               #
                  #                 D-45470 Muelheim/Ruhr               #
                  #                      Germany                        #
                  #                                                     #
                  #                  All rights reserved                #
                  #                        -***-                        #
                  #######################################################


                         Program Version 4.2.1 -  RELEASE  -


 With contributions from (in alphabetic order):
   Daniel Aravena         : Magnetic Suceptibility
   Michael Atanasov       : Ab Initio Ligand Field Theory (pilot matlab implementation)
   Alexander A. Auer      : GIAO ZORA, VPT2
   Ute Becker             : Parallelization
   Giovanni Bistoni       : ED, misc. LED, open-shell LED, HFLD
   Martin Brehm           : Molecular dynamics
   Dmytro Bykov           : SCF Hessian
   Vijay G. Chilkuri      : MRCI spin determinant printing, contributions to CSF-ICE
   Dipayan Datta          : RHF DLPNO-CCSD density
   Achintya Kumar Dutta   : EOM-CC, STEOM-CC
   Dmitry Ganyushin       : Spin-Orbit,Spin-Spin,Magnetic field MRCI
   Miquel Garcia          : C-PCM Hessian, Gaussian charge scheme
   Yang Guo               : DLPNO-NEVPT2, CIM, IAO-localization
   Andreas Hansen         : Spin unrestricted coupled pair/coupled cluster methods
   Benjamin Helmich-Paris : CASSCF linear response (MC-RPA)
   Lee Huntington         : MR-EOM, pCC
   Robert Izsak           : Overlap fitted RIJCOSX, COSX-SCS-MP3, EOM
   Christian Kollmar      : KDIIS, OOCD, Brueckner-CCSD(T), CCSD density
   Simone Kossmann        : Meta GGA functionals, TD-DFT gradient, OOMP2, MP2 Hessian
   Martin Krupicka        : AUTO-CI
   Lucas Lang             : DCDCAS
   Dagmar Lenk            : GEPOL surface, SMD
   Dimitrios Liakos       : Extrapolation schemes; Compound Job, initial MDCI parallelization
   Dimitrios Manganas     : Further ROCIS development; embedding schemes
   Dimitrios Pantazis     : SARC Basis sets
   Taras Petrenko         : DFT Hessian,TD-DFT gradient, ASA, ECA, R-Raman, ABS, FL, XAS/XES, NRVS
   Peter Pinski           : DLPNO-MP2, DLPNO-MP2 Gradient
   Christoph Reimann      : Effective Core Potentials
   Marius Retegan         : Local ZFS, SOC
   Christoph Riplinger    : Optimizer, TS searches, QM/MM, DLPNO-CCSD(T), (RO)-DLPNO pert. Triples
   Tobias Risthaus        : Range-separated hybrids, TD-DFT gradient, RPA, STAB
   Michael Roemelt        : Original ROCIS implementation
   Masaaki Saitow         : Open-shell DLPNO-CCSD energy and density
   Barbara Sandhoefer     : DKH picture change effects
   Avijit Sen             : IP-ROCIS
   Kantharuban Sivalingam : CASSCF convergence, NEVPT2, FIC-MRCI
   Bernardo de Souza      : ESD, SOC TD-DFT
   Georgi Stoychev        : AutoAux, RI-MP2 NMR
   Willem Van den Heuvel  : Paramagnetic NMR
   Boris Wezisla          : Elementary symmetry handling
   Frank Wennmohs         : Technical directorship


 We gratefully acknowledge several colleagues who have allowed us to
 interface, adapt or use parts of their codes:
   Stefan Grimme, W. Hujo, H. Kruse,             : VdW corrections, initial TS optimization,
                  C. Bannwarth                     DFT functionals, gCP, sTDA/sTD-DF
   Ed Valeev, F. Pavosevic, A. Kumar             : LibInt (2-el integral package), F12 methods
   Garnet Chan, S. Sharma, J. Yang, R. Olivares  : DMRG
   Ulf Ekstrom                                   : XCFun DFT Library
   Mihaly Kallay                                 : mrcc  (arbitrary order and MRCC methods)
   Andreas Klamt, Michael Diedenhofen            : otool_cosmo (COSMO solvation model)
   Jiri Pittner, Ondrej Demel                    : Mk-CCSD
   Frank Weinhold                                : gennbo (NPA and NBO analysis)
   Christopher J. Cramer and Donald G. Truhlar   : smd solvation model
   Lars Goerigk                                  : TD-DFT with DH, B97 family of functionals
   V. Asgeirsson, H. Jonsson                     : NEB implementation
   FAccTs GmbH                                   : IRC, NEB, NEB-TS, Multilevel, MM, QM/MM, CI optimization
   S Lehtola, MJT Oliveira, MAL Marques          : LibXC Library


 Your calculation uses the libint2 library for the computation of 2-el integrals
 For citations please refer to: http://libint.valeyev.net

 Your ORCA version has been built with support for libXC version: 4.2.3
 For citations please refer to: https://tddft.org/programs/libxc/

 This ORCA versions uses:
   CBLAS   interface :  Fast vector & matrix operations
   LAPACKE interface :  Fast linear algebra routines


Your calculation utilizes the geometrical counterpoise correction gCP
Please cite in your paper:
H.Kruse, S. Grimme J.Chem.Phys., 136, (2012), 154101 
   

Your calculation utilizes the atom-pairwise dispersion correction
with the Becke-Johnson damping scheme (D3BJ)
Cite in your paper:
S.Grimme, S.Ehrlich, L.Goerigk, J Comput Chem, (2011), 32, 1456???1465 
S.Grimme, J.Antony, S.Ehrlich and H.Krieg, J.Chem.Phys., 132, (2010), 154104 
   

----- Orbital basis set information -----
Your calculation utilizes the basis: MINIX,
   a combination of small basis sets by S. Grimme (see manual for definitions).

================================================================================
                                        WARNINGS
                       Please study these warnings very carefully!
================================================================================


WARNING: your system is open-shell and RHF/RKS was chosen
  ===> : WILL SWITCH to UHF/UKS


WARNING: Geometry Optimization
  ===> : Switching off AutoStart
         For restart on a previous wavefunction, please use MOREAD

INFO   : the flag for use of LIBINT has been found!

================================================================================
                                       INPUT FILE
================================================================================
NAME = CuL.inp
|  1> ! HF-3c PAL2
|  2> ! TightOpt
|  3> ! CPCM(water)
|  4> 
|  5> * xyz 2 2
|  6> 6       -0.828512844     -1.705762970      1.716789128
|  7> 6        0.670705710     -2.020365969      1.654602238
|  8> 7        1.478932072     -0.895028809      1.159842454
|  9> 6        1.214630576      0.349365102      1.907824289
| 10> 6       -0.268977340      0.730791238      1.989873516
| 11> 6       -1.405417241     -1.368504950      0.336032365
| 12> 7       -0.820479611     -0.165592258     -0.287034583
| 13> 6       -0.873275352      1.002042560      0.607038588
| 14> 6       -0.999454864     -0.465429819      2.580013869
| 15> 6       -0.418181496      1.970561938      2.855373442
| 16> 6       -1.569792424     -2.902605038      2.288166781
| 17> 8       -1.633961006     -0.434491839      3.603397746
| 18> 6       -1.497001209      0.119253758     -1.577342142
| 19> 6        2.928631896     -1.215051464      1.160412831
| 20> 6       -2.925040339      0.437191214     -1.251812629
| 21> 6       -3.396652342      1.744718746     -1.147835890
| 22> 6       -4.689429178      1.984282142     -0.680247738
| 23> 6       -5.518798238      0.924954945     -0.302055815
| 24> 6       -5.065426639     -0.383738148     -0.414263040
| 25> 6       -3.765304344     -0.639418614     -0.885497190
| 26> 6        3.310404915     -1.476597112      2.585700089
| 27> 6        3.409522850     -0.361681072      3.449338270
| 28> 6        3.606028310     -0.559227004      4.827741254
| 29> 6        3.695140413     -1.848321776      5.338922001
| 30> 6        3.611586750     -2.946315305      4.478296384
| 31> 6        3.414350608     -2.764288079      3.108899924
| 32> 29       1.098894067     -0.566653054     -0.805797834
| 33> 1        1.026931307     -2.285274457      2.665658393
| 34> 1        0.848022988     -2.889994999      1.003608288
| 35> 1        1.783707647      1.170553505      1.446159894
| 36> 1        1.604018430      0.217807866      2.932310740
| 37> 1       -2.492071319     -1.202085017      0.437808368
| 38> 1       -1.267998239     -2.224161130     -0.342532659
| 39> 1       -1.929786530      1.300472286      0.726761206
| 40> 1       -0.347021638      1.837893651      0.121212287
| 41> 1       -0.018738338      1.785987520      3.861943101
| 42> 1        0.123655269      2.817467301      2.410523464
| 43> 1       -1.477866274      2.242661351      2.954332553
| 44> 1       -1.437692534     -3.781302721      1.640708294
| 45> 1       -1.192352291     -3.143819438      3.291229974
| 46> 1       -2.643268721     -2.684811104      2.371793624
| 47> 1       -1.429500661     -0.782413374     -2.201374270
| 48> 1       -0.981253625      0.941240614     -2.096084083
| 49> 1        3.121559225     -2.074342210      0.500730325
| 50> 1        3.467691283     -0.343216228      0.764453713
| 51> 1       -2.750455564      2.579263019     -1.428936723
| 52> 1       -5.052014425      3.011765663     -0.603689691
| 53> 1       -6.528485801      1.122709707      0.062579730
| 54> 1       -5.734591961     -1.209548549     -0.168798330
| 55> 1       -3.478310909     -1.667709459     -1.157426642
| 56> 1        3.533823995      0.645824526      3.021044146
| 57> 1        3.725052639      0.295347839      5.495246755
| 58> 1        3.850002692     -2.001106951      6.408603708
| 59> 1        3.694769426     -3.958583506      4.880125083
| 60> 1        3.336786412     -3.627239961      2.443929605
| 61> **                         ****END OF INPUT****
================================================================================

                       *****************************
                       * Geometry Optimization Run *
                       *****************************

Geometry optimization settings:
Update method            Update   .... BFGS
Choice of coordinates    CoordSys .... Z-matrix Internals
Initial Hessian          InHess   .... Almoef's Model

Convergence Tolerances:
Energy Change            TolE     ....  1.0000e-06 Eh
Max. Gradient            TolMAXG  ....  1.0000e-04 Eh/bohr
RMS Gradient             TolRMSG  ....  3.0000e-05 Eh/bohr
Max. Displacement        TolMAXD  ....  1.0000e-03 bohr
RMS Displacement         TolRMSD  ....  6.0000e-04 bohr
Strict Convergence                ....  False
------------------------------------------------------------------------------
                        ORCA OPTIMIZATION COORDINATE SETUP
------------------------------------------------------------------------------

The optimization will be done in new redundant internal coordinates
Making redundant internal coordinates   ...  (new redundants) done
Evaluating the initial hessian          ...  (Almloef) done
Evaluating the coordinates              ...  done
Calculating the B-matrix                .... done
Calculating the G-matrix                .... done
Diagonalizing the G-matrix              .... done
Small eigenvalue found = 4.539e-03
Small eigenvalue found = 7.890e-03
Small eigenvalue found = 1.072e-02
Small eigenvalue found = 1.236e-02
The first mode is                       ....  253
The number of degrees of freedom        ....  159

    -----------------------------------------------------------------
                    Redundant Internal Coordinates


    -----------------------------------------------------------------
         Definition                    Initial Value    Approx d2E/dq
    -----------------------------------------------------------------
      1. B(C   1,C   0)                  1.5331         0.369299   
      2. B(N   2,C   1)                  1.4712         0.415281   
      3. B(C   3,N   2)                  1.4758         0.408377   
      4. B(C   4,C   3)                  1.5341         0.368057   
      5. B(C   5,C   0)                  1.5340         0.368172   
      6. B(N   6,C   5)                  1.4756         0.408624   
      7. B(C   7,N   6)                  1.4716         0.414698   
      8. B(C   7,C   4)                  1.5333         0.369083   
      9. B(C   8,C   4)                  1.5208         0.386428   
     10. B(C   8,C   0)                  1.5208         0.386430   
     11. B(C   9,C   4)                  1.5193         0.388499   
     12. B(C  10,C   0)                  1.5193         0.388492   
     13. B(O  11,C   8)                  1.2045         1.106104   
     14. B(C  12,N   6)                  1.4845         0.395477   
     15. B(C  13,N   2)                  1.4846         0.395315   
     16. B(C  14,C  12)                  1.4988         0.418970   
     17. B(C  15,C  14)                  1.3939         0.615990   
     18. B(C  16,C  15)                  1.3955         0.612395   
     19. B(C  17,C  16)                  1.3975         0.607777   
     20. B(C  18,C  17)                  1.3895         0.625859   
     21. B(C  19,C  18)                  1.4063         0.588426   
     22. B(C  19,C  14)                  1.4140         0.572126   
     23. B(C  20,C  13)                  1.4985         0.419355   
     24. B(C  21,C  20)                  1.4138         0.572561   
     25. B(C  22,C  21)                  1.4063         0.588517   
     26. B(C  23,C  22)                  1.3896         0.625695   
     27. B(C  24,C  23)                  1.3976         0.607624   
     28. B(C  25,C  24)                  1.3955         0.612410   
     29. B(C  25,C  20)                  1.3938         0.616125   
     30. B(Cu 26,N   6)                  2.0283         0.542812   
     31. B(Cu 26,N   2)                  2.0288         0.541810   
     32. B(Cu 26,C  13)                  2.7630         0.040764   
     33. B(Cu 26,C  12)                  2.7936         0.036429   
     34. B(H  27,C   1)                  1.1042         0.341768   
     35. B(H  28,C   1)                  1.1007         0.346249   
     36. B(H  29,C   3)                  1.1006         0.346340   
     37. B(H  30,C   3)                  1.1039         0.342226   
     38. B(H  31,C   5)                  1.1040         0.342017   
     39. B(H  32,C   5)                  1.1007         0.346254   
     40. B(H  33,C   7)                  1.1044         0.341597   
     41. B(H  34,C   7)                  1.1007         0.346176   
     42. B(H  35,C   9)                  1.0985         0.348969   
     43. B(H  36,C   9)                  1.0994         0.347850   
     44. B(H  37,C   9)                  1.0985         0.348994   
     45. B(H  38,C  10)                  1.0994         0.347830   
     46. B(H  39,C  10)                  1.0985         0.348983   
     47. B(H  40,C  10)                  1.0985         0.348985   
     48. B(H  41,C  12)                  1.0986         0.348870   
     49. B(H  42,C  12)                  1.1003         0.346676   
     50. B(H  43,C  13)                  1.1004         0.346658   
     51. B(H  44,C  13)                  1.0988         0.348584   
     52. B(H  45,C  15)                  1.0923         0.357111   
     53. B(H  46,C  16)                  1.0923         0.357111   
     54. B(H  47,C  17)                  1.0916         0.358023   
     55. B(H  48,C  18)                  1.0909         0.358951   
     56. B(H  49,C  19)                  1.1017         0.344979   
     57. B(H  50,C  21)                  1.1018         0.344829   
     58. B(H  51,C  22)                  1.0909         0.358932   
     59. B(H  52,C  23)                  1.0916         0.358017   
     60. B(H  53,C  24)                  1.0923         0.357098   
     61. B(H  54,C  25)                  1.0922         0.357209   
     62. A(C   1,C   0,C   8)          107.4757         0.364741   
     63. A(C   8,C   0,C  10)          111.9726         0.367921   
     64. A(C   5,C   0,C  10)          109.1601         0.364882   
     65. A(C   5,C   0,C   8)          106.8182         0.364550   
     66. A(C   1,C   0,C  10)          109.3119         0.365073   
     67. A(C   1,C   0,C   5)          112.1092         0.361737   
     68. A(C   0,C   1,H  28)          110.0996         0.321632   
     69. A(N   2,C   1,H  28)          108.4782         0.325928   
     70. A(C   0,C   1,N   2)          113.1970         0.366965   
     71. A(C   0,C   1,H  27)          109.1205         0.320947   
     72. A(N   2,C   1,H  27)          108.3127         0.325230   
     73. A(H  27,C   1,H  28)          107.4594         0.286704   
     74. A(C   1,N   2,Cu 26)          110.2874         0.437084   
     75. A(C   1,N   2,C  13)          111.8043         0.368959   
     76. A(C   1,N   2,C   3)          112.0957         0.371026   
     77. A(C   3,N   2,Cu 26)          108.7258         0.435766   
     78. A(C   3,N   2,C  13)          110.8828         0.367899   
     79. A(C  13,N   2,Cu 26)          102.6022         0.433224   
     80. A(H  29,C   3,H  30)          107.2075         0.286775   
     81. A(N   2,C   3,C   4)          114.2033         0.365702   
     82. A(N   2,C   3,H  30)          107.8624         0.324407   
     83. A(C   4,C   3,H  30)          108.7322         0.320841   
     84. A(N   2,C   3,H  29)          108.9016         0.325045   
     85. A(C   4,C   3,H  29)          109.6927         0.321469   
     86. A(C   3,C   4,C   9)          109.1675         0.364864   
     87. A(C   7,C   4,C   8)          107.4466         0.364704   
     88. A(C   7,C   4,C   9)          109.3112         0.365038   
     89. A(C   3,C   4,C   8)          106.8408         0.364531   
     90. A(C   3,C   4,C   7)          112.1423         0.361682   
     91. A(C   8,C   4,C   9)          111.9390         0.367922   
     92. A(N   6,C   5,H  31)          107.8312         0.324407   
     93. A(C   0,C   5,H  31)          108.6830         0.320825   
     94. A(H  31,C   5,H  32)          107.2716         0.286737   
     95. A(N   6,C   5,H  32)          108.9007         0.325064   
     96. A(C   0,C   5,H  32)          109.6974         0.321472   
     97. A(C   0,C   5,N   6)          114.2189         0.365759   
     98. A(C   5,N   6,C   7)          112.0905         0.370975   
     99. A(C   7,N   6,Cu 26)          110.2573         0.437119   
    100. A(C   5,N   6,Cu 26)          108.7794         0.435958   
    101. A(C   5,N   6,C  12)          110.0466         0.367963   
    102. A(C   7,N   6,C  12)          111.0688         0.368896   
    103. A(C  12,N   6,Cu 26)          104.2934         0.433400   
    104. A(H  33,C   7,H  34)          107.4592         0.286672   
    105. A(N   6,C   7,H  34)          108.4943         0.325841   
    106. A(C   4,C   7,H  34)          110.1187         0.321590   
    107. A(N   6,C   7,H  33)          108.3369         0.325128   
    108. A(C   4,C   7,H  33)          109.0914         0.320890   
    109. A(C   4,C   7,N   6)          113.1684         0.366840   
    110. A(C   0,C   8,O  11)          124.2231         0.439545   
    111. A(C   0,C   8,C   4)          111.5472         0.367585   
    112. A(C   4,C   8,O  11)          124.2297         0.439545   
    113. A(H  36,C   9,H  37)          108.7269         0.287850   
    114. A(C   4,C   9,H  37)          110.3751         0.324737   
    115. A(H  35,C   9,H  37)          108.0490         0.287994   
    116. A(H  35,C   9,H  36)          108.7216         0.287846   
    117. A(C   4,C   9,H  36)          110.4679         0.324562   
    118. A(C   4,C   9,H  35)          110.4355         0.324733   
    119. A(H  39,C  10,H  40)          108.0454         0.287995   
    120. A(H  38,C  10,H  40)          108.7050         0.287846   
    121. A(C   0,C  10,H  40)          110.4395         0.324735   
    122. A(H  38,C  10,H  39)          108.7200         0.287845   
    123. A(C   0,C  10,H  39)          110.4092         0.324734   
    124. A(C   0,C  10,H  38)          110.4562         0.324558   
    125. A(N   6,C  12,H  42)          109.8467         0.323388   
    126. A(N   6,C  12,C  14)          106.6267         0.371873   
    127. A(H  41,C  12,H  42)          108.4528         0.287681   
    128. A(Cu 26,C  12,H  42)           82.9969         0.248098   
    129. A(C  14,C  12,H  42)          112.9868         0.328439   
    130. A(Cu 26,C  12,H  41)           84.1614         0.248325   
    131. A(C  14,C  12,H  41)          110.8554         0.328781   
    132. A(N   6,C  12,H  41)          107.9526         0.323722   
    133. A(C  14,C  12,Cu 26)          151.3369         0.281010   
    134. A(N   6,C  12,Cu 26)           44.7136         0.276959   
    135. A(C  20,C  13,Cu 26)          152.4366         0.286000   
    136. A(N   2,C  13,Cu 26)           45.7723         0.281786   
    137. A(Cu 26,C  13,H  44)           83.2379         0.252402   
    138. A(N   2,C  13,H  44)          107.9308         0.323657   
    139. A(Cu 26,C  13,H  43)           82.6888         0.252197   
    140. A(C  20,C  13,H  43)          112.9077         0.328486   
    141. A(N   2,C  13,H  43)          109.8352         0.323363   
    142. A(H  43,C  13,H  44)          108.5146         0.287642   
    143. A(N   2,C  13,C  20)          106.6643         0.371906   
    144. A(C  20,C  13,H  44)          110.8686         0.328787   
    145. A(C  12,C  14,C  19)          117.4490         0.399083   
    146. A(C  12,C  14,C  15)          122.5185         0.404311   
    147. A(C  15,C  14,C  19)          119.5942         0.427349   
    148. A(C  16,C  15,H  45)          120.2083         0.351677   
    149. A(C  14,C  15,H  45)          119.8250         0.352025   
    150. A(C  14,C  15,C  16)          119.9661         0.432598   
    151. A(C  15,C  16,C  17)          120.6864         0.431556   
    152. A(C  17,C  16,H  46)          119.8068         0.351227   
    153. A(C  15,C  16,H  46)          119.5055         0.351677   
    154. A(C  16,C  17,C  18)          119.8956         0.433247   
    155. A(C  18,C  17,H  47)          119.9602         0.353125   
    156. A(C  16,C  17,H  47)          120.1333         0.351379   
    157. A(C  19,C  18,H  48)          120.3225         0.349617   
    158. A(C  17,C  18,H  48)          119.6474         0.353280   
    159. A(C  17,C  18,C  19)          119.9949         0.430735   
    160. A(C  18,C  19,H  49)          119.5537         0.347285   
    161. A(C  14,C  19,H  49)          119.4678         0.345648   
    162. A(C  14,C  19,C  18)          119.8519         0.423861   
    163. A(C  21,C  20,C  25)          119.6064         0.427424   
    164. A(C  13,C  20,C  25)          122.4983         0.404393   
    165. A(C  13,C  20,C  21)          117.4672         0.399201   
    166. A(C  20,C  21,H  50)          119.4440         0.345667   
    167. A(C  20,C  21,C  22)          119.8535         0.423931   
    168. A(C  22,C  21,H  50)          119.5844         0.347269   
    169. A(C  23,C  22,H  51)          119.6451         0.353261   
    170. A(C  21,C  22,H  51)          120.3290         0.349623   
    171. A(C  21,C  22,C  23)          119.9894         0.430726   
    172. A(C  24,C  23,H  52)          120.1297         0.351363   
    173. A(C  22,C  23,H  52)          119.9617         0.353109   
    174. A(C  22,C  23,C  24)          119.8974         0.433207   
    175. A(C  25,C  24,H  53)          119.5159         0.351676   
    176. A(C  23,C  24,H  53)          119.8014         0.351210   
    177. A(C  23,C  24,C  25)          120.6815         0.431539   
    178. A(C  24,C  25,H  54)          120.2945         0.351695   
    179. A(C  20,C  25,H  54)          119.7434         0.352054   
    180. A(C  20,C  25,C  24)          119.9616         0.432617   
    181. A(C  12,Cu 26,C  13)          150.4002         0.219872   
    182. A(N   6,Cu 26,C  13)          119.4101         0.328798   
    183. A(N   2,Cu 26,C  13)           31.6255         0.328698   
    184. A(N   6,Cu 26,C  12)           30.9930         0.322772   
    185. A(N   2,Cu 26,C  12)          118.7759         0.322675   
    186. A(N   2,Cu 26,N   6)           87.7916         0.517166   
    187. D(H  27,C   1,C   0,C   8)     64.6282         0.010905   
    188. D(H  28,C   1,C   0,C   8)   -177.6611         0.010905   
    189. D(H  28,C   1,C   0,C   5)    -60.5762         0.010905   
    190. D(H  28,C   1,C   0,C  10)     60.6046         0.010905   
    191. D(H  27,C   1,C   0,C  10)    -57.1061         0.010905   
    192. D(H  27,C   1,C   0,C   5)   -178.2869         0.010905   
    193. D(N   2,C   1,C   0,C   8)    -56.0600         0.010905   
    194. D(N   2,C   1,C   0,C   5)     61.0249         0.010905   
    195. D(N   2,C   1,C   0,C  10)   -177.7943         0.010905   
    196. D(C   3,N   2,C   1,H  28)    175.1396         0.015752   
    197. D(C   3,N   2,C   1,H  27)    -68.5129         0.015752   
    198. D(C  13,N   2,C   1,H  28)    -59.6368         0.015752   
    199. D(Cu 26,N   2,C   1,H  27)    170.1901         0.015752   
    200. D(Cu 26,N   2,C   1,H  28)     53.8427         0.015752   
    201. D(C   3,N   2,C   1,C   0)     52.6323         0.015752   
    202. D(C  13,N   2,C   1,H  27)     56.7107         0.015752   
    203. D(Cu 26,N   2,C   1,C   0)    -68.6647         0.015752   
    204. D(C  13,N   2,C   1,C   0)    177.8558         0.015752   
    205. D(H  30,C   3,N   2,Cu 26)   -169.4243         0.015235   
    206. D(H  29,C   3,N   2,C  13)     58.6879         0.015235   
    207. D(H  30,C   3,N   2,C  13)    -57.3443         0.015235   
    208. D(C   4,C   3,N   2,C   1)    -52.5984         0.015235   
    209. D(H  29,C   3,N   2,C   1)   -175.5832         0.015235   
    210. D(H  30,C   3,N   2,C   1)     68.3845         0.015235   
    211. D(C   4,C   3,N   2,C  13)   -178.3273         0.015235   
    212. D(C   4,C   3,N   2,Cu 26)     69.5927         0.015235   
    213. D(H  29,C   3,N   2,Cu 26)    -53.3921         0.015235   
    214. D(C   7,C   4,C   3,H  29)     60.1905         0.010836   
    215. D(C   8,C   4,C   3,N   2)     55.1111         0.010836   
    216. D(C   7,C   4,C   3,H  30)    177.1367         0.010836   
    217. D(C   7,C   4,C   3,N   2)    -62.3640         0.010836   
    218. D(C   9,C   4,C   3,H  30)     55.8428         0.010836   
    219. D(C   9,C   4,C   3,H  29)    -61.1034         0.010836   
    220. D(C   9,C   4,C   3,N   2)    176.3421         0.010836   
    221. D(C   8,C   4,C   3,H  30)    -65.3881         0.010836   
    222. D(C   8,C   4,C   3,H  29)    177.6657         0.010836   
    223. D(H  32,C   5,C   0,C  10)    -61.0671         0.010843   
    224. D(H  32,C   5,C   0,C   8)    177.6792         0.010843   
    225. D(H  32,C   5,C   0,C   1)     60.2010         0.010843   
    226. D(H  31,C   5,C   0,C  10)     55.9306         0.010843   
    227. D(H  31,C   5,C   0,C   1)    177.1988         0.010843   
    228. D(N   6,C   5,C   0,C  10)    176.3649         0.010843   
    229. D(N   6,C   5,C   0,C   8)     55.1112         0.010843   
    230. D(N   6,C   5,C   0,C   1)    -62.3670         0.010843   
    231. D(H  31,C   5,C   0,C   8)    -65.3230         0.010843   
    232. D(C  12,N   6,C   5,H  32)     60.2640         0.015254   
    233. D(C  12,N   6,C   5,H  31)    -55.8268         0.015254   
    234. D(Cu 26,N   6,C   5,H  32)    -53.4181         0.015254   
    235. D(C  12,N   6,C   5,C   0)   -176.7348         0.015254   
    236. D(Cu 26,N   6,C   5,C   0)     69.5831         0.015254   
    237. D(Cu 26,N   6,C   5,H  31)   -169.5088         0.015254   
    238. D(C   7,N   6,C   5,H  32)   -175.6050         0.015254   
    239. D(C   7,N   6,C   5,H  31)     68.3043         0.015254   
    240. D(C   7,N   6,C   5,C   0)    -52.6038         0.015254   
    241. D(H  34,C   7,C   4,C   8)   -177.7235         0.010893   
    242. D(H  33,C   7,C   4,C   9)    -57.1035         0.010893   
    243. D(H  33,C   7,C   4,C   8)     64.5722         0.010893   
    244. D(H  33,C   7,C   4,C   3)   -178.3148         0.010893   
    245. D(H  34,C   7,C   4,C   3)    -60.6105         0.010893   
    246. D(N   6,C   7,C   4,C   9)   -177.7831         0.010893   
    247. D(N   6,C   7,C   4,C   8)    -56.1075         0.010893   
    248. D(H  34,C   7,C   4,C   9)     60.6008         0.010893   
    249. D(N   6,C   7,C   4,C   3)     61.0055         0.010893   
    250. D(H  34,C   7,N   6,Cu 26)     53.8379         0.015708   
    251. D(H  34,C   7,N   6,C   5)    175.1786         0.015708   
    252. D(H  33,C   7,N   6,Cu 26)    170.2067         0.015708   
    253. D(H  33,C   7,N   6,C  12)     55.1068         0.015708   
    254. D(H  33,C   7,N   6,C   5)    -68.4526         0.015708   
    255. D(C   4,C   7,N   6,Cu 26)    -68.6864         0.015708   
    256. D(H  34,C   7,N   6,C  12)    -61.2620         0.015708   
    257. D(C   4,C   7,N   6,C  12)    176.2137         0.015708   
    258. D(C   4,C   7,N   6,C   5)     52.6543         0.015708   
    259. D(O  11,C   8,C   4,C   9)      0.7659         0.011121   
    260. D(O  11,C   8,C   4,C   7)   -119.2535         0.011121   
    261. D(O  11,C   8,C   4,C   3)    120.2214         0.011121   
    262. D(C   0,C   8,C   4,C   9)   -179.2217         0.011121   
    263. D(C   0,C   8,C   4,C   7)     60.7589         0.011121   
    264. D(C   0,C   8,C   4,C   3)    -59.7662         0.011121   
    265. D(O  11,C   8,C   0,C  10)      0.7604         0.011121   
    266. D(O  11,C   8,C   0,C   5)    120.2118         0.011121   
    267. D(O  11,C   8,C   0,C   1)   -119.2988         0.011121   
    268. D(C   4,C   8,C   0,C  10)   -179.2520         0.011121   
    269. D(C   4,C   8,C   0,C   5)    -59.8006         0.011121   
    270. D(C   4,C   8,C   0,C   1)     60.6888         0.011121   
    271. D(H  37,C   9,C   4,C   8)    -60.0930         0.012003   
    272. D(H  37,C   9,C   4,C   7)     58.8301         0.012003   
    273. D(H  37,C   9,C   4,C   3)   -178.1710         0.012003   
    274. D(H  36,C   9,C   4,C   8)    179.6294         0.012003   
    275. D(H  36,C   9,C   4,C   7)    -61.4474         0.012003   
    276. D(H  36,C   9,C   4,C   3)     61.5515         0.012003   
    277. D(H  35,C   9,C   4,C   8)     59.3193         0.012003   
    278. D(H  35,C   9,C   4,C   7)    178.2424         0.012003   
    279. D(H  35,C   9,C   4,C   3)    -58.7587         0.012003   
    280. D(H  40,C  10,C   0,C   8)     59.1649         0.012003   
    281. D(H  40,C  10,C   0,C   5)    -58.9007         0.012003   
    282. D(H  40,C  10,C   0,C   1)    178.1457         0.012003   
    283. D(H  39,C  10,C   0,C   8)    -60.2673         0.012003   
    284. D(H  39,C  10,C   0,C   5)   -178.3329         0.012003   
    285. D(H  39,C  10,C   0,C   1)     58.7135         0.012003   
    286. D(H  38,C  10,C   0,C   8)    179.4493         0.012003   
    287. D(H  38,C  10,C   0,C   5)     61.3836         0.012003   
    288. D(H  38,C  10,C   0,C   1)    -61.5699         0.012003   
    289. D(H  42,C  12,N   6,Cu 26)    -56.7148         0.015187   
    290. D(H  42,C  12,N   6,C   7)     62.0388         0.015187   
    291. D(H  41,C  12,N   6,C   5)    -55.1621         0.015187   
    292. D(Cu 26,C  12,N   6,C   5)   -116.5257         0.015187   
    293. D(C  14,C  12,N   6,C   7)    -60.7184         0.015187   
    294. D(C  14,C  12,N   6,C   5)     64.0023         0.015187   
    295. D(C  14,C  12,N   6,Cu 26)   -179.4720         0.015187   
    296. D(Cu 26,C  12,N   6,C   7)    118.7536         0.015187   
    297. D(H  42,C  12,N   6,C   5)   -173.2406         0.015187   
    298. D(H  41,C  12,N   6,Cu 26)     61.3637         0.015187   
    299. D(H  41,C  12,N   6,C   7)   -179.8827         0.015187   
    300. D(H  44,C  13,N   2,Cu 26)     60.8114         0.015174   
    301. D(H  44,C  13,N   2,C   1)    178.9825         0.015174   
    302. D(H  43,C  13,N   2,Cu 26)    -57.3222         0.015174   
    303. D(H  43,C  13,N   2,C   3)   -173.2596         0.015174   
    304. D(H  43,C  13,N   2,C   1)     60.8488         0.015174   
    305. D(Cu 26,C  13,N   2,C   3)   -115.9373         0.015174   
    306. D(Cu 26,C  13,N   2,C   1)    118.1710         0.015174   
    307. D(C  20,C  13,N   2,Cu 26)    180.0000         0.015174   
    308. D(H  44,C  13,N   2,C   3)    -55.1259         0.015174   
    309. D(C  20,C  13,N   2,C   3)     64.0627         0.015174   
    310. D(C  20,C  13,N   2,C   1)    -61.8290         0.015174   
    311. D(C  15,C  14,C  12,H  41)   -144.5208         0.013890   
    312. D(C  15,C  14,C  12,Cu 26)     97.4467         0.013890   
    313. D(C  15,C  14,C  12,N   6)     98.2212         0.013890   
    314. D(C  19,C  14,C  12,H  42)    165.0908         0.013890   
    315. D(C  19,C  14,C  12,H  41)     43.1164         0.013890   
    316. D(C  19,C  14,C  12,Cu 26)    -74.9162         0.013890   
    317. D(C  19,C  14,C  12,N   6)    -74.1417         0.013890   
    318. D(C  15,C  14,C  12,H  42)    -22.5463         0.013890   
    319. D(H  45,C  15,C  14,C  19)    179.9456         0.026236   
    320. D(H  45,C  15,C  14,C  12)      7.7407         0.026236   
    321. D(C  16,C  15,C  14,C  19)      0.2124         0.026236   
    322. D(C  16,C  15,C  14,C  12)   -171.9925         0.026236   
    323. D(H  46,C  16,C  15,H  45)      0.3902         0.025913   
    324. D(H  46,C  16,C  15,C  14)   -179.8777         0.025913   
    325. D(C  17,C  16,C  15,H  45)   -179.1965         0.025913   
    326. D(C  17,C  16,C  15,C  14)      0.5356         0.025913   
    327. D(H  47,C  17,C  16,H  46)      0.4074         0.025501   
    328. D(H  47,C  17,C  16,C  15)    179.9929         0.025501   
    329. D(C  18,C  17,C  16,H  46)    179.2051         0.025501   
    330. D(C  18,C  17,C  16,C  15)     -1.2094         0.025501   
    331. D(H  48,C  18,C  17,H  47)      2.0742         0.027136   
    332. D(H  48,C  18,C  17,C  16)   -176.7256         0.027136   
    333. D(C  19,C  18,C  17,H  47)    179.9226         0.027136   
    334. D(C  19,C  18,C  17,C  16)      1.1228         0.027136   
    335. D(H  49,C  19,C  18,H  48)      9.6482         0.023821   
    336. D(H  49,C  19,C  18,C  17)   -168.1855         0.023821   
    337. D(C  14,C  19,C  18,H  48)    177.4535         0.023821   
    338. D(C  14,C  19,C  18,C  17)     -0.3802         0.023821   
    339. D(H  49,C  19,C  14,C  15)    167.5260         0.022461   
    340. D(H  49,C  19,C  14,C  12)    -19.8786         0.022461   
    341. D(C  18,C  19,C  14,C  15)     -0.2898         0.022461   
    342. D(C  18,C  19,C  14,C  12)    172.3056         0.022461   
    343. D(C  25,C  20,C  13,H  44)   -144.3380         0.013915   
    344. D(C  25,C  20,C  13,H  43)    -22.3300         0.013915   
    345. D(C  25,C  20,C  13,Cu 26)     98.4010         0.013915   
    346. D(C  25,C  20,C  13,N   2)     98.4010         0.013915   
    347. D(C  21,C  20,C  13,H  44)     43.2098         0.013915   
    348. D(C  21,C  20,C  13,H  43)    165.2179         0.013915   
    349. D(C  21,C  20,C  13,Cu 26)    -74.0511         0.013915   
    350. D(C  21,C  20,C  13,N   2)    -74.0511         0.013915   
    351. D(H  50,C  21,C  20,C  25)    167.5910         0.022497   
    352. D(H  50,C  21,C  20,C  13)    -19.7296         0.022497   
    353. D(C  22,C  21,C  20,C  25)     -0.2743         0.022497   
    354. D(C  22,C  21,C  20,C  13)    172.4051         0.022497   
    355. D(H  51,C  22,C  21,H  50)      9.6036         0.023829   
    356. D(H  51,C  22,C  21,C  20)    177.4518         0.023829   
    357. D(C  23,C  22,C  21,H  50)   -168.1933         0.023829   
    358. D(C  23,C  22,C  21,C  20)     -0.3451         0.023829   
    359. D(H  52,C  23,C  22,H  51)      2.0455         0.027121   
    360. D(H  52,C  23,C  22,C  21)    179.8575         0.027121   
    361. D(C  24,C  23,C  22,H  51)   -176.7432         0.027121   
    362. D(C  24,C  23,C  22,C  21)      1.0689         0.027121   
    363. D(H  53,C  24,C  23,H  52)      0.4243         0.025488   
    364. D(H  53,C  24,C  23,C  22)    179.2109         0.025488   
    365. D(C  25,C  24,C  23,H  52)   -179.9735         0.025488   
    366. D(C  25,C  24,C  23,C  22)     -1.1869         0.025488   
    367. D(H  54,C  25,C  24,H  53)      0.4148         0.025914   
    368. D(H  54,C  25,C  24,C  23)   -179.1886         0.025914   
    369. D(C  20,C  25,C  24,H  53)   -179.8327         0.025914   
    370. D(C  20,C  25,C  24,C  23)      0.5639         0.025914   
    371. D(H  54,C  25,C  20,C  21)    179.9194         0.026248   
    372. D(H  54,C  25,C  20,C  13)      7.6230         0.026248   
    373. D(C  24,C  25,C  20,C  21)      0.1655         0.026248   
    374. D(C  24,C  25,C  20,C  13)   -172.1309         0.026248   
    375. D(C  12,Cu 26,C  13,H  44)   -122.5495         0.001510   
    376. D(C  12,Cu 26,C  13,H  43)    127.7194         0.001510   
    377. D(C  12,Cu 26,C  13,C  20)      0.6850         0.001510   
    378. D(N   6,Cu 26,C  13,H  44)   -121.9148         0.001510   
    379. D(N   6,Cu 26,C  13,H  43)    128.3541         0.001510   
    380. D(N   6,Cu 26,C  13,C  20)      1.3197         0.001510   
    381. D(N   2,Cu 26,C  13,H  44)   -123.2345         0.001510   
    382. D(N   2,Cu 26,C  13,H  43)    127.0344         0.001510   
    383. D(N   2,Cu 26,C  13,C  20)     -0.0000         0.001510   
    384. D(C  13,Cu 26,C  12,H  41)   -121.8598         0.001508   
    385. D(C  13,Cu 26,C  12,C  14)      2.1286         0.001508   
    386. D(C  13,Cu 26,C  12,N   6)      1.0738         0.001508   
    387. D(N   6,Cu 26,C  12,H  42)    127.6077         0.001508   
    388. D(N   6,Cu 26,C  12,H  41)   -122.9336         0.001508   
    389. D(N   6,Cu 26,C  12,C  14)      1.0548         0.001508   
    390. D(N   2,Cu 26,C  12,H  42)    129.0912         0.001508   
    391. D(N   2,Cu 26,C  12,H  41)   -121.4501         0.001508   
    392. D(N   2,Cu 26,C  12,C  14)      2.5384         0.001508   
    393. D(N   2,Cu 26,C  12,N   6)      1.4836         0.001508   
    394. D(C  13,Cu 26,N   6,C  12)   -179.3912         0.002948   
    395. D(C  13,Cu 26,N   6,C   7)     61.3038         0.002948   
    396. D(C  13,Cu 26,N   6,C   5)    -61.9876         0.002948   
    397. D(C  12,Cu 26,N   6,C   7)   -119.3051         0.002948   
    398. D(C  12,Cu 26,N   6,C   5)    117.4036         0.002948   
    399. D(N   2,Cu 26,N   6,C  12)   -178.6987         0.002948   
    400. D(C  13,Cu 26,C  12,H  42)    128.6815         0.001508   
    401. D(N   2,Cu 26,N   6,C   7)     61.9962         0.002948   
    402. D(N   2,Cu 26,N   6,C   5)    -61.2951         0.002948   
    403. D(C  13,Cu 26,N   2,C   3)    117.4812         0.002943   
    404. D(N   6,Cu 26,C  13,N   2)      1.3197         0.001510   
    405. D(C  13,Cu 26,N   2,C   1)   -119.2370         0.002943   
    406. D(C  12,Cu 26,N   2,C  13)   -179.6140         0.002943   
    407. D(C  12,Cu 26,N   2,C   3)    -62.1328         0.002943   
    408. D(C  12,Cu 26,C  13,N   2)      0.6850         0.001510   
    409. D(C  12,Cu 26,N   2,C   1)     61.1490         0.002943   
    410. D(N   6,Cu 26,N   2,C  13)   -178.8496         0.002943   
    411. D(N   6,Cu 26,N   2,C   3)    -61.3684         0.002943   
    412. D(N   6,Cu 26,N   2,C   1)     61.9134         0.002943   
    -----------------------------------------------------------------

Number of atoms                         .... 55
Number of degrees of freedom            .... 412

         *************************************************************
         *                GEOMETRY OPTIMIZATION CYCLE   1            *
         *************************************************************
---------------------------------
CARTESIAN COORDINATES (ANGSTROEM)
---------------------------------
  C     -0.828513   -1.705763    1.716789
  C      0.670706   -2.020366    1.654602
  N      1.478932   -0.895029    1.159842
  C      1.214631    0.349365    1.907824
  C     -0.268977    0.730791    1.989874
  C     -1.405417   -1.368505    0.336032
  N     -0.820480   -0.165592   -0.287035
  C     -0.873275    1.002043    0.607039
  C     -0.999455   -0.465430    2.580014
  C     -0.418181    1.970562    2.855373
  C     -1.569792   -2.902605    2.288167
  O     -1.633961   -0.434492    3.603398
  C     -1.497001    0.119254   -1.577342
  C      2.928632   -1.215051    1.160413
  C     -2.925040    0.437191   -1.251813
  C     -3.396652    1.744719   -1.147836
  C     -4.689429    1.984282   -0.680248
  C     -5.518798    0.924955   -0.302056
  C     -5.065427   -0.383738   -0.414263
  C     -3.765304   -0.639419   -0.885497
  C      3.310405   -1.476597    2.585700
  C      3.409523   -0.361681    3.449338
  C      3.606028   -0.559227    4.827741
  C      3.695140   -1.848322    5.338922
  C      3.611587   -2.946315    4.478296
  C      3.414351   -2.764288    3.108900
  Cu     1.098894   -0.566653   -0.805798
  H      1.026931   -2.285274    2.665658
  H      0.848023   -2.889995    1.003608
  H      1.783708    1.170554    1.446160
  H      1.604018    0.217808    2.932311
  H     -2.492071   -1.202085    0.437808
  H     -1.267998   -2.224161   -0.342533
  H     -1.929787    1.300472    0.726761
  H     -0.347022    1.837894    0.121212
  H     -0.018738    1.785988    3.861943
  H      0.123655    2.817467    2.410523
  H     -1.477866    2.242661    2.954333
  H     -1.437693   -3.781303    1.640708
  H     -1.192352   -3.143819    3.291230
  H     -2.643269   -2.684811    2.371794
  H     -1.429501   -0.782413   -2.201374
  H     -0.981254    0.941241   -2.096084
  H      3.121559   -2.074342    0.500730
  H      3.467691   -0.343216    0.764454
  H     -2.750456    2.579263   -1.428937
  H     -5.052014    3.011766   -0.603690
  H     -6.528486    1.122710    0.062580
  H     -5.734592   -1.209549   -0.168798
  H     -3.478311   -1.667709   -1.157427
  H      3.533824    0.645825    3.021044
  H      3.725053    0.295348    5.495247
  H      3.850003   -2.001107    6.408604
  H      3.694769   -3.958584    4.880125
  H      3.336786   -3.627240    2.443930

----------------------------
CARTESIAN COORDINATES (A.U.)
----------------------------
  NO LB      ZA    FRAG     MASS         X           Y           Z
   0 C     6.0000    0    12.011   -1.565662   -3.223425    3.244261
   1 C     6.0000    0    12.011    1.267450   -3.817938    3.126745
   2 N     7.0000    0    14.007    2.794777   -1.691359    2.191785
   3 C     6.0000    0    12.011    2.295319    0.660204    3.605265
   4 C     6.0000    0    12.011   -0.508294    1.380995    3.760316
   5 C     6.0000    0    12.011   -2.655854   -2.586100    0.635009
   6 N     7.0000    0    14.007   -1.550482   -0.312924   -0.542417
   7 C     6.0000    0    12.011   -1.650251    1.893586    1.147137
   8 C     6.0000    0    12.011   -1.888696   -0.879535    4.875520
   9 C     6.0000    0    12.011   -0.790249    3.723822    5.395874
  10 C     6.0000    0    12.011   -2.966478   -5.485129    4.324009
  11 O     8.0000    0    15.999   -3.087739   -0.821071    6.809435
  12 C     6.0000    0    12.011   -2.828922    0.225357   -2.980745
  13 C     6.0000    0    12.011    5.534312   -2.296115    2.192862
  14 C     6.0000    0    12.011   -5.527525    0.826172   -2.365583
  15 C     6.0000    0    12.011   -6.418743    3.297041   -2.169095
  16 C     6.0000    0    12.011   -8.861737    3.749750   -1.285482
  17 C     6.0000    0    12.011  -10.429017    1.747912   -0.570803
  18 C     6.0000    0    12.011   -9.572269   -0.725160   -0.782844
  19 C     6.0000    0    12.011   -7.115394   -1.208326   -1.673347
  20 C     6.0000    0    12.011    6.255759   -2.790364    4.886265
  21 C     6.0000    0    12.011    6.443064   -0.683478    6.518305
  22 C     6.0000    0    12.011    6.814406   -1.056786    9.123109
  23 C     6.0000    0    12.011    6.982803   -3.492822   10.089100
  24 C     6.0000    0    12.011    6.824910   -5.567729    8.462754
  25 C     6.0000    0    12.011    6.452188   -5.223747    5.874969
  26 Cu   29.0000    0    63.550    2.076609   -1.070819   -1.522737
  27 H     1.0000    0     1.008    1.940619   -4.318543    5.037364
  28 H     1.0000    0     1.008    1.602531   -5.461299    1.896545
  29 H     1.0000    0     1.008    3.370719    2.212026    2.732846
  30 H     1.0000    0     1.008    3.031156    0.411597    5.541264
  31 H     1.0000    0     1.008   -4.709332   -2.271611    0.827338
  32 H     1.0000    0     1.008   -2.396169   -4.203055   -0.647293
  33 H     1.0000    0     1.008   -3.646768    2.457536    1.373380
  34 H     1.0000    0     1.008   -0.655776    3.473116    0.229058
  35 H     1.0000    0     1.008   -0.035410    3.375027    7.298015
  36 H     1.0000    0     1.008    0.233675    5.324242    4.555229
  37 H     1.0000    0     1.008   -2.792763    4.238016    5.582879
  38 H     1.0000    0     1.008   -2.716845   -7.145627    3.100489
  39 H     1.0000    0     1.008   -2.253219   -5.940958    6.219523
  40 H     1.0000    0     1.008   -4.995054   -5.073558    4.482040
  41 H     1.0000    0     1.008   -2.701365   -1.478547   -4.159994
  42 H     1.0000    0     1.008   -1.854301    1.778687   -3.961025
  43 H     1.0000    0     1.008    5.898892   -3.919939    0.946243
  44 H     1.0000    0     1.008    6.552987   -0.648585    1.444608
  45 H     1.0000    0     1.008   -5.197608    4.874101   -2.700299
  46 H     1.0000    0     1.008   -9.546924    5.691412   -1.140808
  47 H     1.0000    0     1.008  -12.337050    2.121614    0.118259
  48 H     1.0000    0     1.008  -10.836808   -2.285716   -0.318983
  49 H     1.0000    0     1.008   -6.573055   -3.151514   -2.187219
  50 H     1.0000    0     1.008    6.677960    1.220431    5.708946
  51 H     1.0000    0     1.008    7.039329    0.558127   10.384511
  52 H     1.0000    0     1.008    7.275451   -3.781544   12.110506
  53 H     1.0000    0     1.008    6.982102   -7.480639    9.222100
  54 H     1.0000    0     1.008    6.305612   -6.854490    4.618358

--------------------------------
INTERNAL COORDINATES (ANGSTROEM)
--------------------------------
 C      0   0   0     0.000000000000     0.00000000     0.00000000
 C      1   0   0     1.533133565260     0.00000000     0.00000000
 N      2   1   0     1.471190273137   113.19703790     0.00000000
 C      3   2   1     1.475753472641   112.09573105    52.63226376
 C      4   3   2     1.534050332060   114.20329871   307.40159956
 C      1   2   3     1.533965740785   112.10916699    61.02487265
 N      6   1   2     1.475589169537   114.21889064   297.63300244
 C      7   6   1     1.471572388153   112.09049053   307.39622400
 C      1   2   3     1.520790732858   107.47565287   303.94000308
 C      5   4   3     1.519336496847   109.16753806   176.34207520
 C      1   2   3     1.519341559297   109.31191919   182.20565184
 O      9   1   2     1.204520552978   124.22306403   240.70121082
 C      7   6   1     1.484490593505   110.04664246   183.26518482
 C      3   2   1     1.484602439965   111.80433433   177.85584367
 C     13   7   6     1.498782654881   106.62668752    64.00226837
 C     15  13   7     1.393864157859   122.51845849    98.22117445
 C     16  15  13     1.395457361689   119.96613145   188.00752466
 C     17  16  15     1.397517899210   120.68641144     0.53559888
 C     18  17  16     1.389537289816   119.89560918   358.79055358
 C     19  18  17     1.406325747036   119.99494293     1.12280353
 C     14   3   2     1.498532793048   106.66428249   298.17104531
 C     21  14   3     1.413765556579   117.46716715   285.94889250
 C     22  21  14     1.406283604882   119.85348609   172.40508649
 C     23  22  21     1.389608597484   119.98942471   359.65487051
 C     24  23  22     1.397586296786   119.89744153     1.06887220
 C     21  14   3     1.393804434248   122.49826315    98.40103088
 Cu     7   6   1     2.028290015869   108.77938758    69.58312346
 H      2   1   3     1.104222682042   109.12050901   120.68820767
 H      2   1   3     1.100676696325   110.09957242   238.39891262
 H      4   3   2     1.100605796628   108.90161380   184.41677436
 H      4   3   2     1.103858095712   107.86236361    68.38452887
 H      6   1   2     1.104024924592   108.68300983   177.19877078
 H      6   1   2     1.100673417631   109.69742843    60.20104122
 H      8   7   6     1.104359396148   108.33690771   291.54744606
 H      8   7   6     1.100734851164   108.49429490   175.17860611
 H     10   5   4     1.098546781285   110.43549376   301.24132420
 H     10   5   4     1.099421337209   110.46789834    61.55146032
 H     10   5   4     1.098527571311   110.37513655   181.82901412
 H     11   1   2     1.099437352211   110.45615018   298.43005207
 H     11   1   2     1.098535939293   110.40916175    58.71351638
 H     11   1   2     1.098534936531   110.43954319   178.14569342
 H     13   7   6     1.098624611815   107.95258859   304.83794389
 H     13   7   6     1.100341384840   109.84667103   186.75943991
 H     14   3   2     1.100355646670   109.83518789    60.84880077
 H     14   3   2     1.098847270812   107.93081350   178.98247342
 H     16  15  13     1.092269242361   119.82503100     7.74067687
 H     17  16  15     1.092269006165   119.50551093   180.12232398
 H     18  17  16     1.091574551484   120.13329193   179.99287819
 H     19  18  17     1.090870281208   119.64736909   183.27442011
 H     20  19  18     1.101677321410   119.55366227   191.81450562
 H     22  21  14     1.101795880053   119.44400221   340.27038676
 H     23  22  21     1.090884295903   120.32901174   177.45178878
 H     24  23  22     1.091578943296   119.96169634   179.85751828
 H     25  24  23     1.092278614495   119.80139463   179.21086781
 H     26  21  14     1.092193975583   119.74339997     7.62304282

---------------------------
INTERNAL COORDINATES (A.U.)
---------------------------
 C      0   0   0     0.000000000000     0.00000000     0.00000000
 C      1   0   0     2.897202565063     0.00000000     0.00000000
 N      2   1   0     2.780146707117   113.19703790     0.00000000
 C      3   2   1     2.788769904475   112.09573105    52.63226376
 C      4   3   2     2.898935003244   114.20329871   307.40159956
 C      1   2   3     2.898775148902   112.10916699    61.02487265
 N      6   1   2     2.788459416605   114.21889064   297.63300244
 C      7   6   1     2.780868799850   112.09049053   307.39622400
 C      1   2   3     2.873877992106   107.47565287   303.94000308
 C      5   4   3     2.871129884313   109.16753806   176.34207520
 C      1   2   3     2.871139450956   109.31191919   182.20565184
 O      9   1   2     2.276213967807   124.22306403   240.70121082
 C      7   6   1     2.805280670106   110.04664246   183.26518482
 C      3   2   1     2.805492029284   111.80433433   177.85584367
 C     13   7   6     2.832288751997   106.62668752    64.00226837
 C     15  13   7     2.634021526243   122.51845849    98.22117445
 C     16  15  13     2.637032245156   119.96613145   188.00752466
 C     17  16  15     2.640926096759   120.68641144     0.53559888
 C     18  17  16     2.625844930623   119.89560918   358.79055358
 C     19  18  17     2.657570516980   119.99494293     1.12280353
 C     14   3   2     2.831816581561   106.66428249   298.17104531
 C     21  14   3     2.671629719505   117.46716715   285.94889250
 C     22  21  14     2.657490879850   119.85348609   172.40508649
 C     23  22  21     2.625979682588   119.98942471   359.65487051
 C     24  23  22     2.641055349446   119.89744153     1.06887220
 C     21  14   3     2.633908664975   122.49826315    98.40103088
 Cu     7   6   1     3.832912650160   108.77938758    69.58312346
 H      2   1   3     2.086678459923   109.12050901   120.68820767
 H      2   1   3     2.079977518043   110.09957242   238.39891262
 H      4   3   2     2.079843537032   108.90161380   184.41677436
 H      4   3   2     2.085989491608   107.86236361    68.38452887
 H      6   1   2     2.086304752502   108.68300983   177.19877078
 H      6   1   2     2.079971322209   109.69742843    60.20104122
 H      8   7   6     2.086936812142   108.33690771   291.54744606
 H      8   7   6     2.080087414763   108.49429490   175.17860611
 H     10   5   4     2.075952561930   110.43549376   301.24132420
 H     10   5   4     2.077605233114   110.46789834    61.55146032
 H     10   5   4     2.075916260339   110.37513655   181.82901412
 H     11   1   2     2.077635497082   110.45615018   298.43005207
 H     11   1   2     2.075932073533   110.40916175    58.71351638
 H     11   1   2     2.075930178587   110.43954319   178.14569342
 H     13   7   6     2.076099640316   107.95258859   304.83794389
 H     13   7   6     2.079343871167   109.84667103   186.75943991
 H     14   3   2     2.079370822120   109.83518789    60.84880077
 H     14   3   2     2.076520404842   107.93081350   178.98247342
 H     16  15  13     2.064089732568   119.82503100     7.74067687
 H     17  16  15     2.064089286223   119.50551093   180.12232398
 H     18  17  16     2.062776957063   120.13329193   179.99287819
 H     19  18  17     2.061446079117   119.64736909   183.27442011
 H     20  19  18     2.081868425417   119.55366227   191.81450562
 H     22  21  14     2.082092468784   119.44400221   340.27038676
 H     23  22  21     2.061472563052   120.32901174   177.45178878
 H     24  23  22     2.062785256385   119.96169634   179.85751828
 H     25  24  23     2.064107443334   119.80139463   179.21086781
 H     26  21  14     2.063947498970   119.74339997     7.62304282

---------------------
BASIS SET INFORMATION
---------------------
There are 5 groups of distinct atoms

 Group   1 Type C   : 6s3p contracted to 2s1p pattern {33/3}
 Group   2 Type N   : 6s3p contracted to 2s1p pattern {33/3}
 Group   3 Type O   : 6s3p contracted to 2s1p pattern {33/3}
 Group   4 Type Cu  : 14s8p5d contracted to 5s2p2d pattern {63311/53/41}
 Group   5 Type H   : 3s contracted to 1s pattern {3}

Atom   0C    basis set group =>   1
Atom   1C    basis set group =>   1
Atom   2N    basis set group =>   2
Atom   3C    basis set group =>   1
Atom   4C    basis set group =>   1
Atom   5C    basis set group =>   1
Atom   6N    basis set group =>   2
Atom   7C    basis set group =>   1
Atom   8C    basis set group =>   1
Atom   9C    basis set group =>   1
Atom  10C    basis set group =>   1
Atom  11O    basis set group =>   3
Atom  12C    basis set group =>   1
Atom  13C    basis set group =>   1
Atom  14C    basis set group =>   1
Atom  15C    basis set group =>   1
Atom  16C    basis set group =>   1
Atom  17C    basis set group =>   1
Atom  18C    basis set group =>   1
Atom  19C    basis set group =>   1
Atom  20C    basis set group =>   1
Atom  21C    basis set group =>   1
Atom  22C    basis set group =>   1
Atom  23C    basis set group =>   1
Atom  24C    basis set group =>   1
Atom  25C    basis set group =>   1
Atom  26Cu   basis set group =>   4
Atom  27H    basis set group =>   5
Atom  28H    basis set group =>   5
Atom  29H    basis set group =>   5
Atom  30H    basis set group =>   5
Atom  31H    basis set group =>   5
Atom  32H    basis set group =>   5
Atom  33H    basis set group =>   5
Atom  34H    basis set group =>   5
Atom  35H    basis set group =>   5
Atom  36H    basis set group =>   5
Atom  37H    basis set group =>   5
Atom  38H    basis set group =>   5
Atom  39H    basis set group =>   5
Atom  40H    basis set group =>   5
Atom  41H    basis set group =>   5
Atom  42H    basis set group =>   5
Atom  43H    basis set group =>   5
Atom  44H    basis set group =>   5
Atom  45H    basis set group =>   5
Atom  46H    basis set group =>   5
Atom  47H    basis set group =>   5
Atom  48H    basis set group =>   5
Atom  49H    basis set group =>   5
Atom  50H    basis set group =>   5
Atom  51H    basis set group =>   5
Atom  52H    basis set group =>   5
Atom  53H    basis set group =>   5
Atom  54H    basis set group =>   5


           ************************************************************
           *        Program running with 2 parallel MPI-processes     *
           *              working on a common directory               *
           ************************************************************
------------------------------------------------------------------------------
                           ORCA GTO INTEGRAL CALCULATION
------------------------------------------------------------------------------

                         BASIS SET STATISTICS AND STARTUP INFO

 # of primitive gaussian shells          ...  345
 # of primitive gaussian functions       ...  537
 # of contracted shells                  ...  115
 # of contracted basis functions         ...  179
 Highest angular momentum                ...    2
 Maximum contraction depth               ...    6
 Integral package used                   ... LIBINT
 Integral threshhold            Thresh   ...  2.500e-11
 Primitive cut-off              TCut     ...  2.500e-12
 Storage cut-off                TCutStore... -1.000e+00
 Buffer length                           ... 1048576 integrals/buffer
 Generate file with integrals 4 distinct ...false


------------------------------ INTEGRAL EVALUATION ----------------------------


 * One electron integrals 
 Pre-screening matrix                    ... done
 Shell pair data                         ... done (   0.006 sec)
 Statistics run                          ... done
 Maximum amount of storage needed        ...   518 MB
 Maximum amount of storage dedicated     ...  4095 MB
 Beginning two electron integral evaluation:
 Starting repulsion integrals
  <ss|ss>  ...      2242657 b.   1272569 skpd ( 36.2%)     1.362 s. (  0.001 ms/b)
  <ss|sp>  ...      3497290 b.   1688066 skpd ( 32.6%)     3.216 s. (  0.001 ms/b)
  <ss|sd>  ...       213294 b.    120732 skpd ( 36.1%)     0.345 s. (  0.002 ms/b)
  <ss|pp>  ...       711757 b.    242603 skpd ( 25.4%)     1.840 s. (  0.003 ms/b)
  <ss|pd>  ...        94582 b.     43270 skpd ( 31.4%)     0.282 s. (  0.003 ms/b)
  <ss|dd>  ...         7686 b.       267 skpd (  3.4%)     0.063 s. (  0.008 ms/b)
  <sp|sp>  ...      1357514 b.    556432 skpd ( 29.1%)     3.061 s. (  0.002 ms/b)
  <sp|sd>  ...       166400 b.     80056 skpd ( 32.5%)     0.497 s. (  0.003 ms/b)
  <sp|pp>  ...       546676 b.    157484 skpd ( 22.4%)     2.682 s. (  0.005 ms/b)
  <sp|pd>  ...        73175 b.     28537 skpd ( 28.1%)     0.443 s. (  0.006 ms/b)
  <sp|dd>  ...         5689 b.       179 skpd (  3.1%)     0.123 s. (  0.022 ms/b)
  <sd|sd>  ...         5105 b.      2896 skpd ( 36.2%)     0.025 s. (  0.005 ms/b)
  <sd|pp>  ...        33942 b.     11418 skpd ( 25.2%)     0.280 s. (  0.008 ms/b)
  <sd|pd>  ...         4543 b.      2009 skpd ( 30.7%)     0.082 s. (  0.018 ms/b)
  <sd|dd>  ...          365 b.        13 skpd (  3.4%)     0.021 s. (  0.058 ms/b)
  <pp|pp>  ...        54427 b.     10553 skpd ( 16.2%)     0.683 s. (  0.013 ms/b)
  <pp|pd>  ...        14637 b.      4083 skpd ( 21.8%)     0.391 s. (  0.027 ms/b)
  <pp|dd>  ...         1068 b.        12 skpd (  1.1%)     0.088 s. (  0.082 ms/b)
  <pd|pd>  ...         1007 b.       371 skpd ( 26.9%)     0.044 s. (  0.044 ms/b)
  <pd|dd>  ...          148 b.         8 skpd (  5.1%)     0.020 s. (  0.135 ms/b)
  <dd|dd>  ...            6 b.         0 skpd (  0.0%)     0.005 s. (  0.833 ms/b)


                                      INTEGRAL STATISTICS

Integral type statistics:
 Number of integrals retained            ...   62603621 
 One   Center Integrals retained         ...   62603621 (100.0%)
 Two   Center Integrals retained         ...          0 (  0.0%)
 Three Center Integrals retained         ...          0 (  0.0%)
 Four  Center Integrals retained         ...          0 (  0.0%)

Storage statistics:
 Number of char integrals                ...          0 (  0.0%)
 Number of short int integrals           ...          0 (  0.0%)
 Number of double/float integrals        ...   62603621 (100.0%)
 Amount of memory used                   ...        776 MB
 Amount of memory estimated              ...        518 MB ( 66.8%)

Prescreening statistics:
 Total number of shell quadruples        ...   22247785 
 Number of skipped shell quadruples      ...    4709808 ( 21.2%)
 # of negligible batches done            ...          0 (  0.0%)

Timings:
 Total evaluation time               ...    17.445 sec (   0.291 min)
 One electron matrix time            ...     0.190 sec (   0.003 min) =  1.1%
 Schwartz matrix evaluation time     ...     0.366 sec (   0.006 min) =  2.1%
 Statistics run                      ...     1.124 sec (   0.019 min) =  6.4%
 Repulsion integral time             ...    15.555 sec (   0.259 min) = 89.2%



           ************************************************************
           *        Program running with 2 parallel MPI-processes     *
           *              working on a common directory               *
           ************************************************************
-------------------------------------------------------------------------------
                                 ORCA SCF
-------------------------------------------------------------------------------

------------
SCF SETTINGS
------------
Hamiltonian:
 Ab initio Hamiltonian  Method          .... Hartree-Fock(GTOs)


General Settings:
 Integral files         IntName         .... CuL
 Hartree-Fock type      HFTyp           .... UHF
 Total Charge           Charge          ....    2
 Multiplicity           Mult            ....    2
 Number of Electrons    NEL             ....  215
 Basis Dimension        Dim             ....  179
 Nuclear Repulsion      ENuc            ....   3181.2217152889 Eh

Convergence Acceleration:
 DIIS                   CNVDIIS         .... on
   Start iteration      DIISMaxIt       ....    12
   Startup error        DIISStart       ....  0.200000
   # of expansion vecs  DIISMaxEq       ....     5
   Bias factor          DIISBfac        ....   1.050
   Max. coefficient     DIISMaxC        ....  10.000
 Newton-Raphson         CNVNR           .... off
 SOSCF                  CNVSOSCF        .... off
 Level Shifting         CNVShift        .... on
   Level shift para.    LevelShift      ....    0.2500
   Turn off err/grad.   ShiftErr        ....    0.0010
 Zerner damping         CNVZerner       .... off
 Static damping         CNVDamp         .... on
   Fraction old density DampFac         ....    0.7000
   Max. Damping (<1)    DampMax         ....    0.9800
   Min. Damping (>=0)   DampMin         ....    0.0000
   Turn off err/grad.   DampErr         ....    0.1000
 Fernandez-Rico         CNVRico         .... off

SCF Procedure:
 Maximum # iterations   MaxIter         ....   125
 SCF integral mode      SCFMode         .... Conventional
 Integral Threshold     Thresh          ....  2.500e-11 Eh
 Primitive CutOff       TCut            ....  2.500e-12 Eh
 Integral Buffer length BufferLength    .... 1048576
 Integral index format  IndFormat       ....     0
 Integral value format  ValFormat       ....     0
 Integral Storage       Thresh          ....  2.500e-11 Eh

Convergence Tolerance:
 Convergence Check Mode ConvCheckMode   .... Total+1el-Energy
 Convergence forced     ConvForced      .... 0
 Energy Change          TolE            ....  1.000e-08 Eh
 1-El. energy change                    ....  1.000e-05 Eh
 DIIS Error             TolErr          ....  5.000e-07


Diagonalization of the overlap matrix:
Smallest eigenvalue                        ... 8.910e-02
Time for diagonalization                   ...    0.066 sec
Threshold for overlap eigenvalues          ... 1.000e-08
Number of eigenvalues below threshold      ... 0
Time for construction of square roots      ...    0.024 sec
Total time needed                          ...    0.090 sec

--------------------------------
INITIAL GUESS: MINIMAL BASIS EHT
--------------------------------
The minimal basis has 176 functions
EHT matrix was diagonalized
Basis set overlap was calculated now projecting the orbitals
Using GuessMode=FMatrix for the initial guess
C*T matrix was formed
Effective Fockian was calculated
Effective Fockian was diagonalized
Initial density was built
                      ------------------
                      INITIAL GUESS DONE
                      ------------------

 InCore treatment chosen:
   Memory dedicated               ...    1024 MB
   Memory needed                  ...    388 MB
   Number of tiny    integrals    ...       0
   Number of small   integrals    ...       0
   Number of regular integrals    ... 62603621


--------------------
CPCM SOLVATION MODEL
--------------------
CPCM parameters:
  Epsilon                                         ...      80.4000
  Refrac                                          ...       1.3300
  Rsolv                                           ...       1.3000
  Surface type                                    ...    GEPOL SES
  Epsilon function type                           ...         CPCM
Radii:
 Radius for C  used is    3.7795 Bohr (=   2.0000 Ang.)
 Radius for N  used is    3.4582 Bohr (=   1.8300 Ang.)
 Radius for O  used is    3.2503 Bohr (=   1.7200 Ang.)
 Radius for Cu used is    4.2009 Bohr (=   2.2230 Ang.)
 Radius for H  used is    2.4566 Bohr (=   1.3000 Ang.)
Calculating surface                               ...        done! (  0.7s)
GEPOL surface points                              ...         2060
GEPOL Volume                                      ...    3088.6543
GEPOL Surface-area                                ...    1350.1125
Calculating surface distance matrix               ...        done! (  0.0s)
Performing Cholesky decomposition & store         ...        done! (  1.0s)
Overall time for CPCM initialization              ...                 1.7s
--------------
SCF ITERATIONS
--------------
ITER       Energy         Delta-E        Max-DP      RMS-DP      [F,P]     Damp
  0  -2699.3410567332   0.000000000000 0.09956247  0.00227814  0.9431273 0.7000
  1  -2700.2271624998  -0.886105766595 0.06009339  0.00162305  0.6066119 0.7000
  2  -2700.8038345607  -0.576672060982 0.03781979  0.00107924  0.3689249 0.7000
  3  -2701.2001077193  -0.396273158547 0.02211618  0.00073963  0.2271549 0.7000
                               ***Turning on DIIS***
  4  -2701.4791264339  -0.279018714626 0.01783029  0.00053065  0.1441173 0.7000
  5  -2701.9740472502  -0.494920816300 0.06204189  0.00142245  0.0944086 0.0000
  6  -2702.1553188604  -0.181271610206 0.01845329  0.00025090  0.0095780 0.0000
  7  -2702.1263490135   0.028969846954 0.01626367  0.00018785  0.0068938 0.0000
  8  -2702.1133221915   0.013026821934 0.00987425  0.00012004  0.0041394 0.0000
  9  -2702.1269406017  -0.013618410206 0.00710775  0.00008703  0.0026274 0.0000
 10  -2702.1268711715   0.000069430267 0.00522416  0.00007056  0.0014305 0.0000
 11  -2702.1408693348  -0.013998163357 0.00409292  0.00005189  0.0007220 0.0000
 12  -2702.1558316793  -0.014962344513 0.00178815  0.00001876  0.0004874 0.0000
 13  -2702.1551866539   0.000645025432 0.00086817  0.00000869  0.0000901 0.0000
 14  -2702.1565215959  -0.001334941969 0.00022561  0.00000422  0.0000516 0.0000
 15  -2702.1567915750  -0.000269979103 0.00018532  0.00000368  0.0000493 0.0000
 16  -2702.1568569096  -0.000065334593 0.00023804  0.00000467  0.0000472 0.0000
 17  -2702.1568819466  -0.000025037032 0.00037082  0.00000728  0.0000449 0.0000
 18  -2702.1567866582   0.000095288403 0.00064815  0.00001278  0.0000415 0.0000
 19  -2702.1566914432   0.000095215007 0.00201224  0.00003971  0.0000362 0.0000
 20  -2702.1567819251  -0.000090481876 0.00183072  0.00003621  0.0000217 0.0000
 21  -2702.1568992184  -0.000117293286 0.00155501  0.00003079  0.0000120 0.0000
 22  -2702.1569326817  -0.000033463335 0.00110395  0.00002180  0.0000077 0.0000
 23  -2702.1569238214   0.000008860278 0.00061008  0.00001201  0.0000064 0.0000
 24  -2702.1569154213   0.000008400065 0.00012800  0.00000251  0.0000060 0.0000
 25  -2702.1569212119  -0.000005790508 0.00000834  0.00000019  0.0000058 0.0000
 26  -2702.1569079190   0.000013292863 0.00024755  0.00000488  0.0000061 0.0000
 27  -2702.1569130187  -0.000005099690 0.00037028  0.00000726  0.0000066 0.0000
 28  -2702.1569421533  -0.000029134572 0.00006497  0.00000126  0.0000064 0.0000
 29  -2702.1569336252   0.000008528097 0.00003663  0.00000074  0.0000064 0.0000
 30  -2702.1569299530   0.000003672126 0.00023941  0.00000471  0.0000064 0.0000
 31  -2702.1569254979   0.000004455098 0.00044808  0.00000880  0.0000062 0.0000
 32  -2702.1569200210   0.000005476973 0.00002172  0.00000043  0.0000060 0.0000
 33  -2702.1569148579   0.000005163060 0.00062051  0.00001218  0.0000062 0.0000
 34  -2702.1569239581  -0.000009100166 0.00020645  0.00000404  0.0000064 0.0000
 35  -2702.1569332022  -0.000009244171 0.00036565  0.00000718  0.0000065 0.0000
 36  -2702.1569429818  -0.000009779520 0.00000641  0.00000013  0.0000065 0.0000
 37  -2702.1569418744   0.000001107385 0.00022185  0.00000436  0.0000065 0.0000
 38  -2702.1569364629   0.000005411447 0.00034620  0.00000679  0.0000064 0.0000
 39  -2702.1569537893  -0.000017326384 0.00108161  0.00002123  0.0000062 0.0000
 40  -2702.1569431694   0.000010619890 0.00135408  0.00002658  0.0000065 0.0000
 41  -2702.1570270832  -0.000083913786 0.00296818  0.00005835  0.0000065 0.0000
 42  -2702.1570523925  -0.000025309305 0.00384271  0.00007572  0.0000064 0.0000
 43  -2702.1569419614   0.000110431107 0.00076664  0.00001515  0.0000062 0.0000
 44  -2702.1568963689   0.000045592546 0.00049317  0.00000977  0.0000060 0.0000
 45  -2702.1568841054   0.000012263459 0.00024979  0.00000502  0.0000057 0.0000
 46  -2702.1568812399   0.000002865539 0.00012070  0.00000257  0.0000054 0.0000
 47  -2702.1568872394  -0.000005999495 0.00021639  0.00000456  0.0000051 0.0000
 48  -2702.1568834891   0.000003750217 0.00029370  0.00000625  0.0000047 0.0000
 49  -2702.1568872931  -0.000003803999 0.00046620  0.00000984  0.0000040 0.0000
 50  -2702.1568849573   0.000002335822 0.00033471  0.00000709  0.0000031 0.0000
 51  -2702.1568804078   0.000004549552 0.00012015  0.00000252  0.0000026 0.0000
 52  -2702.1568795474   0.000000860352 0.00003760  0.00000079  0.0000024 0.0000
 53  -2702.1568780102   0.000001537206 0.00000714  0.00000014  0.0000024 0.0000
 54  -2702.1568770009   0.000001009294 0.00005803  0.00000121  0.0000025 0.0000
 55  -2702.1568790733  -0.000002072386 0.00009184  0.00000193  0.0000025 0.0000
 56  -2702.1568791295  -0.000000056223 0.00009130  0.00000190  0.0000024 0.0000
 57  -2702.1568773769   0.000001752570 0.00008141  0.00000169  0.0000024 0.0000
 58  -2702.1568792753  -0.000001898374 0.00009818  0.00000204  0.0000024 0.0000
 59  -2702.1568777854   0.000001489876 0.00007051  0.00000147  0.0000024 0.0000
 60  -2702.1568794622  -0.000001676714 0.00009875  0.00000206  0.0000024 0.0000
 61  -2702.1568786822   0.000000779971 0.00005816  0.00000121  0.0000023 0.0000
 62  -2702.1568776391   0.000001043042 0.00002627  0.00000054  0.0000023 0.0000
 63  -2702.1568783665  -0.000000727365 0.00003176  0.00000066  0.0000023 0.0000
 64  -2702.1568785183  -0.000000151749 0.00003555  0.00000073  0.0000023 0.0000
 65  -2702.1568789052  -0.000000386945 0.00006677  0.00000139  0.0000023 0.0000
 66  -2702.1568772318   0.000001673391 0.00007277  0.00000150  0.0000022 0.0000
 67  -2702.1568797514  -0.000002519582 0.00012630  0.00000261  0.0000023 0.0000
 68  -2702.1568771271   0.000002624295 0.00005685  0.00000117  0.0000022 0.0000
 69  -2702.1568776747  -0.000000547609 0.00001793  0.00000037  0.0000022 0.0000
 70  -2702.1568777309  -0.000000056168 0.00001124  0.00000023  0.0000023 0.0000
 71  -2702.1568780971  -0.000000366223 0.00001621  0.00000033  0.0000023 0.0000
 72  -2702.1568795831  -0.000001486025 0.00011778  0.00000244  0.0000023 0.0000
 73  -2702.1568777653   0.000001817800 0.00004841  0.00000100  0.0000022 0.0000
 74  -2702.1568781703  -0.000000404978 0.00002993  0.00000062  0.0000022 0.0000
 75  -2702.1568798764  -0.000001706057 0.00012253  0.00000253  0.0000022 0.0000
 76  -2702.1568768641   0.000003012225 0.00005720  0.00000118  0.0000022 0.0000
 77  -2702.1568772908  -0.000000426627 0.00001179  0.00000024  0.0000022 0.0000
 78  -2702.1568775437  -0.000000252967 0.00001619  0.00000033  0.0000022 0.0000
 79  -2702.1568768630   0.000000680685 0.00001755  0.00000036  0.0000022 0.0000
 80  -2702.1568804831  -0.000003620074 0.00018441  0.00000381  0.0000022 0.0000
 81  -2702.1568768078   0.000003675331 0.00012670  0.00000261  0.0000021 0.0000
 82  -2702.1568794818  -0.000002674056 0.00006688  0.00000138  0.0000022 0.0000
 83  -2702.1568780597   0.000001422173 0.00000606  0.00000012  0.0000021 0.0000
 84  -2702.1568777121   0.000000347580 0.00000979  0.00000020  0.0000021 0.0000
 85  -2702.1568775496   0.000000162515 0.00000533  0.00000011  0.0000021 0.0000
 86  -2702.1568782724  -0.000000722777 0.00006594  0.00000135  0.0000021 0.0000
 87  -2702.1568795429  -0.000001270502 0.00012639  0.00000261  0.0000021 0.0000
 88  -2702.1568751751   0.000004367751 0.00018199  0.00000373  0.0000021 0.0000
 89  -2702.1568781266  -0.000002951500 0.00001683  0.00000032  0.0000021 0.0000
 90  -2702.1568781926  -0.000000065971 0.00003575  0.00000075  0.0000021 0.0000
 91  -2702.1568786915  -0.000000498901 0.00007579  0.00000167  0.0000020 0.0000
 92  -2702.1568781725   0.000000518988 0.00002531  0.00000047  0.0000020 0.0000
 93  -2702.1568804452  -0.000002272706 0.00010052  0.00000203  0.0000020 0.0000
 94  -2702.1568760175   0.000004427655 0.00012853  0.00000260  0.0000020 0.0000
 95  -2702.1568785021  -0.000002484592 0.00000115  0.00000002  0.0000020 0.0000
 96  -2702.1568793199  -0.000000817798 0.00009311  0.00000196  0.0000020 0.0000
 97  -2702.1568773177   0.000002002222 0.00003324  0.00000069  0.0000020 0.0000
 98  -2702.1568775304  -0.000000212688 0.00001285  0.00000027  0.0000020 0.0000
 99  -2702.1568793104  -0.000001780030 0.00008707  0.00000176  0.0000020 0.0000
100  -2702.1568756551   0.000003655338 0.00009730  0.00000198  0.0000020 0.0000
101  -2702.1568801623  -0.000004507248 0.00015951  0.00000334  0.0000020 0.0000
102  -2702.1568774458   0.000002716554 0.00009980  0.00000206  0.0000019 0.0000
103  -2702.1568791015  -0.000001655739 0.00001045  0.00000022  0.0000020 0.0000
104  -2702.1568798977  -0.000000796143 0.00011880  0.00000245  0.0000020 0.0000
105  -2702.1568764090   0.000003488650 0.00005629  0.00000119  0.0000019 0.0000
106  -2702.1568762571   0.000000151878 0.00001077  0.00000022  0.0000019 0.0000
107  -2702.1568766834  -0.000000426265 0.00004744  0.00000098  0.0000019 0.0000
108  -2702.1568744628   0.000002220598 0.00004736  0.00000097  0.0000019 0.0000
109  -2702.1568817003  -0.000007237517 0.00018411  0.00000378  0.0000019 0.0000
110  -2702.1568810561   0.000000644238 0.00012802  0.00000262  0.0000019 0.0000
111  -2702.1568844214  -0.000003365355 0.00000211  0.00000004  0.0000019 0.0000
112  -2702.1568846785  -0.000000257017 0.00000103  0.00000002  0.0000019 0.0000
113  -2702.1568849550  -0.000000276540 0.00000946  0.00000019  0.0000019 0.0000
114  -2702.1568795277   0.000005427244 0.00012266  0.00000252  0.0000019 0.0000
115  -2702.1568719803   0.000007547438 0.00002404  0.00000049  0.0000019 0.0000
116  -2702.1568679215   0.000004058777 0.00005338  0.00000109  0.0000019 0.0000
117  -2702.1568673732   0.000000548361 0.00000146  0.00000003  0.0000019 0.0000
118  -2702.1568679390  -0.000000565788 0.00002654  0.00000054  0.0000019 0.0000
119  -2702.1568820993  -0.000014160354 0.00019333  0.00000396  0.0000019 0.0000
120  -2702.1568878191  -0.000005719813 0.00007339  0.00000150  0.0000018 0.0000
121  -2702.1568900126  -0.000002193437 0.00001118  0.00000023  0.0000018 0.0000
122  -2702.1568892532   0.000000759412 0.00000060  0.00000001  0.0000018 0.0000
123  -2702.1568892381   0.000000015004 0.00005308  0.00000108  0.0000018 0.0000
124  -2702.1568790681   0.000010170021 0.00013776  0.00000282  0.0000018 0.0000

               *****************************************************
               *                      ERROR                        *
               *        SCF NOT CONVERGED AFTER 125 CYCLES         *
               *****************************************************


---------------
SCF CONVERGENCE
---------------

  Last Energy change         ...    1.0170e-05  Tolerance :   1.0000e-08
  Last MAX-Density change    ...    1.3776e-04  Tolerance :   1.0000e-07
  Last RMS-Density change    ...    2.8227e-06  Tolerance :   5.0000e-09
  Last DIIS Error            ...    1.8071e-06  Tolerance :   5.0000e-07

             **** DENSITY FILE WAS UPDATED (CuL.scfp) ****
             **** ENERGY FILE WAS UPDATED (CuL.en.tmp) ****

     --------------------------------------------------------------------
                                      WARNING
     The wavefunction IS NOT YET CONVERGED! It shows however signs of
     convergence. Therefore the wavefunction will be stored and can be
     used as input for another calculation. 
     DO NOT USE THIS WAVEFUNCTION  FOR ANYHTING ELSE. It is NOT RELIABLE
     --------------------------------------------------------------------

-------
TIMINGS
-------

Total SCF time: 0 days 0 hours 13 min 1 sec 

Total time                  ....     781.192 sec
Sum of individual times     ....     429.208 sec  ( 54.9%)

Fock matrix formation       ....     422.470 sec  ( 54.1%)
Diagonalization             ....       4.305 sec  (  0.6%)
Density matrix formation    ....       0.229 sec  (  0.0%)
Population analysis         ....       0.000 sec  (  0.0%)
[...]
  41 H     1.0000    0     1.008   -2.774236   -1.518385   -3.984703
  42 H     1.0000    0     1.008   -1.976227    1.734235   -3.736096
  43 H     1.0000    0     1.008    5.762767   -3.854799    1.154365
  44 H     1.0000    0     1.008    6.438986   -0.595432    1.591330
  45 H     1.0000    0     1.008   -5.200137    4.793533   -2.883571
  46 H     1.0000    0     1.008   -9.660744    5.875099   -2.080160
  47 H     1.0000    0     1.008  -12.774455    2.484933   -1.254141
  48 H     1.0000    0     1.008  -11.419927   -1.988418   -1.379699
  49 H     1.0000    0     1.008   -7.010752   -3.051541   -2.406654
  50 H     1.0000    0     1.008    7.078626    1.124425    5.993780
  51 H     1.0000    0     1.008    8.229304    0.237066   10.411852
  52 H     1.0000    0     1.008    8.651794   -4.185020   11.869209
  53 H     1.0000    0     1.008    7.827665   -7.696699    8.894107
  54 H     1.0000    0     1.008    6.454863   -6.780936    4.534579

--------------------------------
INTERNAL COORDINATES (ANGSTROEM)
--------------------------------
 C      0   0   0     0.000000000000     0.00000000     0.00000000
 C      1   0   0     1.548071265547     0.00000000     0.00000000
 N      2   1   0     1.489346827034   112.57144039     0.00000000
 C      3   2   1     1.493415566390   112.06113025    53.32313171
 C      4   3   2     1.550513190902   113.70793041   306.82659615
 C      1   2   3     1.550868813386   112.26747451    61.01439887
 N      6   1   2     1.494448576066   113.79760150   297.28210243
 C      7   6   1     1.490464484793   111.99805019   307.03323885
 C      1   2   3     1.538764575078   107.89173087   303.07292618
 C      5   4   3     1.537273379065   108.94645227   176.47004592
 C      1   2   3     1.537157922735   109.03283569   181.83490500
 O      9   1   2     1.199992131762   124.67132825   241.12120512
 C      7   6   1     1.511843564957   110.79905307   182.95257211
 C      3   2   1     1.511161315758   111.06876341   178.63725280
 C     13   7   6     1.523149205481   113.15726500    64.13885324
 C     15  13   7     1.388505385961   119.81485605    97.65891220
 C     16  15  13     1.388978023506   120.50415151   185.49635693
 C     17  16  15     1.388744216505   119.96886512     0.64567964
 C     18  17  16     1.391659080034   119.74293011   358.55497799
 C     19  18  17     1.387062134216   120.10644307     1.02028560
 C     14   3   2     1.523420302228   113.15953824   298.37732299
 C     21  14   3     1.392255419924   120.56504498   282.50228528
 C     22  21  14     1.386862379248   120.28528888   174.15163422
 C     23  22  21     1.391465893672   120.09278830     0.24329400
 C     24  23  22     1.388570411996   119.75451946     0.99625938
 C     21  14   3     1.388135620112   119.86261469    97.68257497
 Cu     7   6   1     1.996717658907   108.30662503    68.65078979
 H      2   1   3     1.088921531303   109.10022729   121.42014489
 H      2   1   3     1.089188328683   109.71888828   238.77542232
 H      4   3   2     1.089279905039   108.90304037   184.11965387
 H      4   3   2     1.087709587451   108.95834503    67.32109657
 H      6   1   2     1.088304748435   107.96152363   176.29963288
 H      6   1   2     1.089870125482   109.73163851    59.53424126
 H      8   7   6     1.088804015126   109.19649674   291.84403294
 H      8   7   6     1.089341472522   108.69725550   174.98730454
 H     10   5   4     1.083868516090   110.20598757   301.26885192
 H     10   5   4     1.084117829383   110.23579518    61.49421997
 H     10   5   4     1.083857884087   110.06760643   181.64393353
 H     11   1   2     1.084061123764   110.23126063   298.50363216
 H     11   1   2     1.083853142874   110.07686986    58.65472680
 H     11   1   2     1.083922079380   110.20843522   178.28680983
 H     13   7   6     1.091824845705   106.88267016   303.85300509
 H     13   7   6     1.090311930508   107.73654875   186.76871082
 H     14   3   2     1.089964321629   107.72111943    60.91215440
 H     14   3   2     1.091801612977   106.97729231   178.01538815
 H     16  15  13     1.080532408961   119.55958700     5.49501549
 H     17  16  15     1.080466801060   119.83714501   180.16422161
 H     18  17  16     1.080965913583   120.13230979   179.40420195
 H     19  18  17     1.080645835042   119.98503556   181.91144350
 H     20  19  18     1.079515472983   119.58273406   187.14389657
 H     22  21  14     1.079225872156   119.73729649   347.16387779
 H     23  22  21     1.080660032460   119.91321302   179.29379856
 H     24  23  22     1.080945647928   120.11485935   180.10159535
 H     25  24  23     1.080481823045   120.18160820   179.00592407
 H     26  21  14     1.080546784679   119.52975082     5.38776546

---------------------------
INTERNAL COORDINATES (A.U.)
---------------------------
 C      0   0   0     0.000000000000     0.00000000     0.00000000
 C      1   0   0     2.925430727677     0.00000000     0.00000000
 N      2   1   0     2.814457621519   112.57144039     0.00000000
 C      3   2   1     2.822146424611   112.06113025    53.32313171
 C      4   3   2     2.930045297838   113.70793041   306.82659615
 C      1   2   3     2.930717326939   112.26747451    61.01439887
 N      6   1   2     2.824098529993   113.79760150   297.28210243
 C      7   6   1     2.816569688595   111.99805019   307.03323885
 C      1   2   3     2.907843631478   107.89173087   303.07292618
 C      5   4   3     2.905025679401   108.94645227   176.47004592
 C      1   2   3     2.904807498557   109.03283569   181.83490500
 O      9   1   2     2.267656491890   124.67132825   241.12120512
 C      7   6   1     2.856970295100   110.79905307   182.95257211
 C      3   2   1     2.855681030959   111.06876341   178.63725280
 C     13   7   6     2.878334859459   113.15726500    64.13885324
 C     15  13   7     2.623894914940   119.81485605    97.65891220
 C     16  15  13     2.624788070462   120.50415151   185.49635693
 C     17  16  15     2.624346239262   119.96886512     0.64567964
 C     18  17  16     2.629854533050   119.74293011   358.55497799
 C     19  18  17     2.621167564400   120.10644307     1.02028560
 C     14   3   2     2.878847158067   113.15953824   298.37732299
 C     21  14   3     2.630981452124   120.56504498   282.50228528
 C     22  21  14     2.620790082217   120.28528888   174.15163422
 C     23  22  21     2.629489463731   120.09278830     0.24329400
 C     24  23  22     2.624017796339   119.75451946     0.99625938
 C     21  14   3     2.623196158752   119.86261469    97.68257497
 Cu     7   6   1     3.773249542099   108.30662503    68.65078979
 H      2   1   3     2.057763475492   109.10022729   121.42014489
 H      2   1   3     2.058267649475   109.71888828   238.77542232
 H      4   3   2     2.058440703708   108.90304037   184.11965387
 H      4   3   2     2.055473233522   108.95834503    67.32109657
 H      6   1   2     2.056597924789   107.96152363   176.29963288
 H      6   1   2     2.059556058703   109.73163851    59.53424126
 H      8   7   6     2.057541402102   109.19649674   291.84403294
 H      8   7   6     2.058557049389   108.69725550   174.98730454
 H     10   5   4     2.048214660589   110.20598757   301.26885192
 H     10   5   4     2.048685794436   110.23579518    61.49421997
 H     10   5   4     2.048194569016   110.06760643   181.64393353
 H     11   1   2     2.048578636345   110.23126063   298.50363216
 H     11   1   2     2.048185609421   110.07686986    58.65472680
 H     11   1   2     2.048315880538   110.20843522   178.28680983
 H     13   7   6     2.063249944593   106.88267016   303.85300509
 H     13   7   6     2.060390949208   107.73654875   186.76871082
 H     14   3   2     2.059734063624   107.72111943    60.91215440
 H     14   3   2     2.063206041100   106.97729231   178.01538815
 H     16  15  13     2.041910331762   119.55958700     5.49501549
 H     17  16  15     2.041786350798   119.83714501   180.16422161
 H     18  17  16     2.042729536776   120.13230979   179.40420195
 H     19  18  17     2.042124675993   119.98503556   181.91144350
 H     20  19  18     2.039988601269   119.58273406   187.14389657
 H     22  21  14     2.039441335018   119.73729649   347.16387779
 H     23  22  21     2.042151505225   119.91321302   179.29379856
 H     24  23  22     2.042691240239   120.11485935   180.10159535
 H     25  24  23     2.041814738234   120.18160820   179.00592407
 H     26  21  14     2.041937497933   119.52975082     5.38776546



           ************************************************************
           *        Program running with 2 parallel MPI-processes     *
           *              working on a common directory               *
           ************************************************************
 Starting repulsion integrals
  <ss|ss>  ...      2084509 b.   1211519 skpd ( 36.8%)     0.337 s. (  0.000 ms/b)
  <ss|sp>  ...      3236035 b.   1641265 skpd ( 33.7%)     0.877 s. (  0.000 ms/b)
  <ss|sd>  ...       204601 b.    116274 skpd ( 36.2%)     0.102 s. (  0.000 ms/b)
  <ss|pp>  ...       662610 b.    248675 skpd ( 27.3%)     0.483 s. (  0.001 ms/b)
  <ss|pd>  ...        90041 b.     40876 skpd ( 31.2%)     0.085 s. (  0.001 ms/b)
  <ss|dd>  ...         7471 b.       230 skpd (  3.0%)     0.019 s. (  0.003 ms/b)
  <sp|sp>  ...      1250983 b.    554967 skpd ( 30.7%)     0.829 s. (  0.001 ms/b)
  <sp|sd>  ...       158812 b.     78688 skpd ( 33.1%)     0.141 s. (  0.001 ms/b)
  <sp|pp>  ...       508036 b.    166464 skpd ( 24.7%)     0.706 s. (  0.001 ms/b)
  <sp|pd>  ...        69391 b.     27509 skpd ( 28.4%)     0.130 s. (  0.002 ms/b)
  <sp|dd>  ...         5509 b.       191 skpd (  3.4%)     0.041 s. (  0.007 ms/b)
  <sd|sd>  ...         5079 b.      2796 skpd ( 35.5%)     0.008 s. (  0.002 ms/b)
  <sd|pp>  ...        32460 b.     11915 skpd ( 26.9%)     0.075 s. (  0.002 ms/b)
  <sd|pd>  ...         4413 b.      1962 skpd ( 30.8%)     0.025 s. (  0.006 ms/b)
  <sd|dd>  ...          361 b.        14 skpd (  3.7%)     0.007 s. (  0.019 ms/b)
  <pp|pp>  ...        51117 b.     12073 skpd ( 19.1%)     0.188 s. (  0.004 ms/b)
  <pp|pd>  ...        14042 b.      4063 skpd ( 22.4%)     0.119 s. (  0.008 ms/b)
  <pp|dd>  ...         1054 b.        11 skpd (  1.0%)     0.026 s. (  0.025 ms/b)
  <pd|pd>  ...          985 b.       341 skpd ( 25.7%)     0.014 s. (  0.014 ms/b)
  <pd|dd>  ...          147 b.         6 skpd (  3.9%)     0.006 s. (  0.041 ms/b)
  <dd|dd>  ...            6 b.         0 skpd (  0.0%)     0.001 s. (  0.167 ms/b)


           ************************************************************
           *        Program running with 2 parallel MPI-processes     *
           *              working on a common directory               *
           ************************************************************

Diagonalization of the overlap matrix:
Smallest eigenvalue                        ... 8.820e-02
Time for diagonalization                   ...    0.006 sec
Threshold for overlap eigenvalues          ... 1.000e-08
Number of eigenvalues below threshold      ... 0
Time for construction of square roots      ...    0.005 sec
Total time needed                          ...    0.011 sec


 InCore treatment chosen:
   Memory dedicated               ...    1024 MB
   Memory needed                  ...    362 MB
   Number of tiny    integrals    ...       0
   Number of small   integrals    ...       0
   Number of regular integrals    ... 58401753


--------------------
CPCM SOLVATION MODEL
--------------------
CPCM parameters:
  Epsilon                                         ...      80.4000
  Refrac                                          ...       1.3300
  Rsolv                                           ...       1.3000
  Surface type                                    ...    GEPOL SES
  Epsilon function type                           ...         CPCM
Radii:
 Radius for C  used is    3.7795 Bohr (=   2.0000 Ang.)
 Radius for N  used is    3.4582 Bohr (=   1.8300 Ang.)
 Radius for O  used is    3.2503 Bohr (=   1.7200 Ang.)
 Radius for Cu used is    4.2009 Bohr (=   2.2230 Ang.)
 Radius for H  used is    2.4566 Bohr (=   1.3000 Ang.)
Calculating surface                               ...        done! (  0.2s)
GEPOL surface points                              ...         1958
GEPOL Volume                                      ...    3080.0935
GEPOL Surface-area                                ...    1385.1416
Calculating surface distance matrix               ...        done! (  0.0s)
Performing Cholesky decomposition & store         ...        done! (  0.2s)
Overall time for CPCM initialization              ...                 0.3s
--------------
SCF ITERATIONS
--------------
ITER       Energy         Delta-E        Max-DP      RMS-DP      [F,P]     Damp
  0  -2702.0853266438   0.000000000000 0.00882356  0.00018601  0.0284476 0.7000
  1  -2702.0897315984  -0.004404954644 0.00999201  0.00018025  0.0239610 0.7000
                               ***Turning on DIIS***
  2  -2702.0934796376  -0.003748039193 0.03089210  0.00049757  0.0196001 0.0000
  3  -2702.0062877944   0.087191843229 0.01659056  0.00020216  0.0074242 0.0000
  4  -2702.0743320584  -0.068044264011 0.00827071  0.00011585  0.0031882 0.0000
  5  -2702.0965642664  -0.022232208014 0.00585082  0.00010067  0.0023280 0.0000
  6  -2702.0855289374   0.011035328992 0.00578409  0.00011810  0.0019411 0.0000
  7  -2702.0865149019  -0.000985964500 0.00711431  0.00014157  0.0014245 0.0000
  8  -2702.0863839421   0.000130959853 0.00826782  0.00016309  0.0010626 0.0000
  9  -2702.0808768442   0.005507097897 0.01550843  0.00030290  0.0007133 0.0000
 10  -2702.1002736108  -0.019396766654 0.01051580  0.00020081  0.0004391 0.0000
 11  -2702.1056995495  -0.005425938612 0.01094265  0.00020708  0.0001160 0.0000
 12  -2702.1119986176  -0.006299068148 0.00745867  0.00014165  0.0000992 0.0000
 13  -2702.1123831797  -0.000384562150 0.00425029  0.00008116  0.0000941 0.0000
 14  -2702.1113097416   0.001073438152 0.00033016  0.00000652  0.0000945 0.0000
 15  -2702.1122702263  -0.000960484698 0.00134771  0.00002589  0.0000967 0.0000
 16  -2702.1110922090   0.001178017270 0.00352142  0.00006722  0.0000971 0.0000
 17  -2702.1119928546  -0.000900645568 0.00317861  0.00006037  0.0000960 0.0000
 18  -2702.1128501557  -0.000857301155 0.00237064  0.00004575  0.0000972 0.0000
 19  -2702.1125413731   0.000308782676 0.00143973  0.00002769  0.0000972 0.0000
 20  -2702.1126959386  -0.000154565570 0.00038183  0.00000734  0.0000966 0.0000
 21  -2702.1128711948  -0.000175256188 0.00026065  0.00000501  0.0000966 0.0000
 22  -2702.1131726489  -0.000301454026 0.00578277  0.00011047  0.0000966 0.0000
 23  -2702.1122714647   0.000901184158 0.00107667  0.00002041  0.0000978 0.0000
 24  -2702.1118877838   0.000383680916 0.00037207  0.00000715  0.0000983 0.0000
 25  -2702.1118461972   0.000041586553 0.00016611  0.00000319  0.0000981 0.0000
 26  -2702.1119388609  -0.000092663714 0.00075202  0.00001449  0.0000981 0.0000
 27  -2702.1134238488  -0.001484987881 0.00622645  0.00011952  0.0000984 0.0000
 28  -2702.1131498955   0.000273953324 0.00207623  0.00004005  0.0001006 0.0000
 29  -2702.1134686677  -0.000318772243 0.00043815  0.00000843  0.0000997 0.0000
 30  -2702.1135551532  -0.000086485502 0.00015161  0.00000291  0.0000995 0.0000
 31  -2702.1137987121  -0.000243558829 0.00156483  0.00003023  0.0000995 0.0000
 32  -2702.1137128206   0.000085891475 0.00509570  0.00009793  0.0001000 0.0000
 33  -2702.1125862005   0.001126620090 0.00052284  0.00001010  0.0001022 0.0000
 34  -2702.1125638323   0.000022368246 0.00018327  0.00000354  0.0001021 0.0000
 35  -2702.1125522337   0.000011598607 0.00006682  0.00000129  0.0001020 0.0000
 36  -2702.1130025908  -0.000450357189 0.00215441  0.00004175  0.0001020 0.0000
 37  -2702.1142708816  -0.001268290767 0.00445551  0.00008583  0.0001026 0.0000
 38  -2702.1141827244   0.000088157235 0.00071524  0.00001387  0.0001037 0.0000
 39  -2702.1142973036  -0.000114579218 0.00021900  0.00000424  0.0001034 0.0000
 40  -2702.1143349847  -0.000037681115 0.00008762  0.00000170  0.0001033 0.0000
 41  -2702.1148524308  -0.000517446134 0.00313786  0.00006098  0.0001033 0.0000
 42  -2702.1145331926   0.000319238244 0.00330440  0.00006373  0.0001042 0.0000
 43  -2702.1136761555   0.000857037137 0.00024879  0.00000483  0.0001055 0.0000
 44  -2702.1136674509   0.000008704590 0.00010053  0.00000195  0.0001054 0.0000
 45  -2702.1136602783   0.000007172595 0.00005000  0.00000097  0.0001054 0.0000
 46  -2702.1145036331  -0.000843354858 0.00362536  0.00007017  0.0001054 0.0000
 47  -2702.1151714234  -0.000667790303 0.00277071  0.00005354  0.0001059 0.0000
 48  -2702.1151934679  -0.000022044490 0.00027086  0.00000523  0.0001059 0.0000
 49  -2702.1151669934   0.000026474524 0.00017656  0.00000341  0.0001059 0.0000
 50  -2702.1151529816   0.000014011841 0.00012797  0.00000247  0.0001059 0.0000
 51  -2702.1158440762  -0.000691094647 0.00368483  0.00007094  0.0001059 0.0000
 52  -2702.1155248926   0.000319183577 0.00225473  0.00004370  0.0001061 0.0000
 53  -2702.1151559982   0.000368894441 0.00056948  0.00001094  0.0001063 0.0000
 54  -2702.1152111475  -0.000055149349 0.00044099  0.00000847  0.0001062 0.0000
 55  -2702.1152639690  -0.000052821496 0.00040332  0.00000774  0.0001061 0.0000
 56  -2702.1159784697  -0.000714500657 0.00305893  0.00005856  0.0001061 0.0000
 57  -2702.1163494085  -0.000370938796 0.00256843  0.00004937  0.0001056 0.0000
 58  -2702.1164771133  -0.000127704806 0.00194817  0.00003721  0.0001049 0.0000
 59  -2702.1167203370  -0.000243223726 0.00273834  0.00005223  0.0001043 0.0000
 60  -2702.1174338362  -0.000713499224 0.00495337  0.00009432  0.0001034 0.0000
 61  -2702.1187053362  -0.001271499920 0.00805748  0.00015306  0.0001012 0.0000
 62  -2702.1224997535  -0.003794417295 0.01771663  0.00033538  0.0000963 0.0000
 63  -2702.1354958540  -0.012996100539 0.04643463  0.00088007  0.0000816 0.0000
 64  -2702.1244513177   0.011044536269 0.00531511  0.00010172  0.0000660 0.0000
 65  -2702.1189519932   0.005499324567 0.00678852  0.00013033  0.0000277 0.0000
 66  -2702.1198288298  -0.000876836675 0.00208932  0.00003928  0.0000186 0.0000
 67  -2702.1203993256  -0.000570495731 0.00103252  0.00001863  0.0000158 0.0000
 68  -2702.1205166286  -0.000117302995 0.00109407  0.00002055  0.0000112 0.0000
 69  -2702.1205327224  -0.000016093843 0.00087747  0.00000942  0.0000067 0.0000
 70  -2702.1204989409   0.000033781463 0.00072883  0.00001074  0.0000054 0.0000
 71  -2702.1204540493   0.000044891608 0.00066883  0.00000955  0.0000056 0.0000
 72  -2702.1204867724  -0.000032723057 0.00123445  0.00001525  0.0000059 0.0000
 73  -2702.1204490589   0.000037713503 0.00069322  0.00000748  0.0000065 0.0000
 74  -2702.1204420789   0.000006979968 0.00030579  0.00000317  0.0000068 0.0000
 75  -2702.1204563107  -0.000014231774 0.00020431  0.00000212  0.0000069 0.0000
 76  -2702.1204533336   0.000002977105 0.00004927  0.00000080  0.0000069 0.0000
 77  -2702.1204659744  -0.000012640790 0.00001688  0.00000018  0.0000069 0.0000
 78  -2702.1204806277  -0.000014653308 0.00006076  0.00000095  0.0000069 0.0000
 79  -2702.1204145439   0.000066083767 0.00058017  0.00000603  0.0000069 0.0000
 80  -2702.1204864237  -0.000071879806 0.00015343  0.00000159  0.0000072 0.0000
 81  -2702.1204819919   0.000004431870 0.00008874  0.00000092  0.0000071 0.0000

job aborted:
[ranks] message

[0] job terminated by the user

[1] terminated

---- error analysis -----

[0] on DESKTOP-LLRSD48
ctrl-c was hit. job aborted by the user.

---- error analysis -----
