
                                 *****************
                                 * O   R   C   A *
                                 *****************

           --- An Ab Initio, DFT and Semiempirical electronic structure package ---

                  #######################################################
                  #                        -***-                        #
                  #          Department of theory and spectroscopy      #
                  #               Directorship: Frank Neese             #
                  #        Max Planck Institute fuer Kohlenforschung    #
                  #                Kaiser Wilhelm Platz 1               #
                  #                 D-45470 Muelheim/Ruhr               #
                  #                      Germany                        #
                  #                                                     #
                  #                  All rights reserved                #
                  #                        -***-                        #
                  #######################################################


                         Program Version 4.2.0 -  RELEASE  -


 With contributions from (in alphabetic order):
   Daniel Aravena         : Magnetic Suceptibility
   Michael Atanasov       : Ab Initio Ligand Field Theory (pilot matlab implementation)
   Alexander A. Auer      : GIAO ZORA, VPT2
   Ute Becker             : Parallelization
   Giovanni Bistoni       : ED, misc. LED, open-shell LED, HFLED
   Martin Brehm           : Molecular dynamics
   Dmytro Bykov           : SCF Hessian
   Vijay G. Chilkuri      : MRCI spin determinant printing, contributions to CSF-ICE
   Dipayan Datta          : RHF DLPNO-CCSD density
   Achintya Kumar Dutta   : EOM-CC, STEOM-CC
   Dmitry Ganyushin       : Spin-Orbit,Spin-Spin,Magnetic field MRCI
   Miquel Garcia          : C-PCM Hessian, Gaussian charge scheme
   Yang Guo               : DLPNO-NEVPT2, CIM, IAO-localization
   Andreas Hansen         : Spin unrestricted coupled pair/coupled cluster methods
   Benjamin Helmich-Paris : CASSCF linear response (MC-RPA)
   Lee Huntington         : MR-EOM, pCC
   Robert Izsak           : Overlap fitted RIJCOSX, COSX-SCS-MP3, EOM
   Christian Kollmar      : KDIIS, OOCD, Brueckner-CCSD(T), CCSD density
   Simone Kossmann        : Meta GGA functionals, TD-DFT gradient, OOMP2, MP2 Hessian
   Martin Krupicka        : AUTO-CI
   Lucas Lang             : DCDCAS
   Dagmar Lenk            : GEPOL surface, SMD
   Dimitrios Liakos       : Extrapolation schemes; Compound Job, initial MDCI parallelization
   Dimitrios Manganas     : Further ROCIS development; embedding schemes
   Dimitrios Pantazis     : SARC Basis sets
   Taras Petrenko         : DFT Hessian,TD-DFT gradient, ASA, ECA, R-Raman, ABS, FL, XAS/XES, NRVS
   Peter Pinski           : DLPNO-MP2, DLPNO-MP2 Gradient
   Christoph Reimann      : Effective Core Potentials
   Marius Retegan         : Local ZFS, SOC
   Christoph Riplinger    : Optimizer, TS searches, QM/MM, DLPNO-CCSD(T), (RO)-DLPNO pert. Triples
   Tobias Risthaus        : Range-separated hybrids, TD-DFT gradient, RPA, STAB
   Michael Roemelt        : Original ROCIS implementation
   Masaaki Saitow         : Open-shell DLPNO-CCSD energy and density
   Barbara Sandhoefer     : DKH picture change effects
   Avijit Sen             : IP-ROCIS
   Kantharuban Sivalingam : CASSCF convergence, NEVPT2, FIC-MRCI
   Bernardo de Souza      : ESD, SOC TD-DFT
   Georgi Stoychev        : AutoAux, RI-MP2 NMR
   Willem Van den Heuvel  : Paramagnetic NMR
   Boris Wezisla          : Elementary symmetry handling
   Frank Wennmohs         : Technical directorship


 We gratefully acknowledge several colleagues who have allowed us to
 interface, adapt or use parts of their codes:
   Stefan Grimme, W. Hujo, H. Kruse,             : VdW corrections, initial TS optimization,
                  C. Bannwarth                     DFT functionals, gCP, sTDA/sTD-DF
   Ed Valeev, F. Pavosevic, A. Kumar             : LibInt (2-el integral package), F12 methods
   Garnet Chan, S. Sharma, J. Yang, R. Olivares  : DMRG
   Ulf Ekstrom                                   : XCFun DFT Library
   Mihaly Kallay                                 : mrcc  (arbitrary order and MRCC methods)
   Andreas Klamt, Michael Diedenhofen            : otool_cosmo (COSMO solvation model)
   Jiri Pittner, Ondrej Demel                    : Mk-CCSD
   Frank Weinhold                                : gennbo (NPA and NBO analysis)
   Christopher J. Cramer and Donald G. Truhlar   : smd solvation model
   Lars Goerigk                                  : TD-DFT with DH, B97 family of functionals
   V. Asgeirsson, H. Jonsson                     : NEB implementation
   FAccTs GmbH                                   : IRC, NEB, NEB-TS, Multilevel, MM, QM/MM, CI optimization
   S Lehtola, MJT Oliveira, MAL Marques          : LibXC Library


 Your calculation uses the libint2 library for the computation of 2-el integrals
 For citations please refer to: http://libint.valeyev.net

 Your ORCA version has been built with support for libXC version: 4.2.3
 For citations please refer to: https://tddft.org/programs/libxc/

 This ORCA versions uses:
   CBLAS   interface :  Fast vector & matrix operations
   LAPACKE interface :  Fast linear algebra routines
   SCALAPACK package :  Parallel linear algebra routines


Your calculation utilizes the atom-pairwise dispersion correction
with the Becke-Johnson damping scheme (D3BJ)
Cite in your paper:
S.Grimme, S.Ehrlich, L.Goerigk, J Comput Chem, (2011), 32, 1456–1465 
S.Grimme, J.Antony, S.Ehrlich and H.Krieg, J.Chem.Phys., 132, (2010), 154104 
   

----- Orbital basis set information -----
Your calculation utilizes the basis: def2-SVP
   F. Weigend and R. Ahlrichs, Phys. Chem. Chem. Phys. 7, 3297 (2005).

================================================================================
                                        WARNINGS
                       Please study these warnings very carefully!
================================================================================


WARNING: your system is open-shell and RHF/RKS was chosen
  ===> : WILL SWITCH to UHF/UKS


WARNING: Geometry Optimization
  ===> : Switching off AutoStart
         For restart on a previous wavefunction, please use MOREAD

INFO   : the flag for use of LIBINT has been found!

================================================================================
                                       INPUT FILE
================================================================================
NAME = CuL.inp
|  1> ! PBE0 Grid4 D3BJ def2-svp
|  2> ! TightOpt
|  3> ! CPCM(water)
|  4> 
|  5> %pal nprocs 1
|  6> end
|  7> 
|  8> * xyz 2 2
|  9> 6       -0.828512844     -1.705762970      1.716789128
| 10> 6        0.670705710     -2.020365969      1.654602238
| 11> 7        1.478932072     -0.895028809      1.159842454
| 12> 6        1.214630576      0.349365102      1.907824289
| 13> 6       -0.268977340      0.730791238      1.989873516
| 14> 6       -1.405417241     -1.368504950      0.336032365
| 15> 7       -0.820479611     -0.165592258     -0.287034583
| 16> 6       -0.873275352      1.002042560      0.607038588
| 17> 6       -0.999454864     -0.465429819      2.580013869
| 18> 6       -0.418181496      1.970561938      2.855373442
| 19> 6       -1.569792424     -2.902605038      2.288166781
| 20> 8       -1.633961006     -0.434491839      3.603397746
| 21> 6       -1.497001209      0.119253758     -1.577342142
| 22> 6        2.928631896     -1.215051464      1.160412831
| 23> 6       -2.925040339      0.437191214     -1.251812629
| 24> 6       -3.396652342      1.744718746     -1.147835890
| 25> 6       -4.689429178      1.984282142     -0.680247738
| 26> 6       -5.518798238      0.924954945     -0.302055815
| 27> 6       -5.065426639     -0.383738148     -0.414263040
| 28> 6       -3.765304344     -0.639418614     -0.885497190
| 29> 6        3.310404915     -1.476597112      2.585700089
| 30> 6        3.409522850     -0.361681072      3.449338270
| 31> 6        3.606028310     -0.559227004      4.827741254
| 32> 6        3.695140413     -1.848321776      5.338922001
| 33> 6        3.611586750     -2.946315305      4.478296384
| 34> 6        3.414350608     -2.764288079      3.108899924
| 35> 29       1.098894067     -0.566653054     -0.805797834
| 36> 1        1.026931307     -2.285274457      2.665658393
| 37> 1        0.848022988     -2.889994999      1.003608288
| 38> 1        1.783707647      1.170553505      1.446159894
| 39> 1        1.604018430      0.217807866      2.932310740
| 40> 1       -2.492071319     -1.202085017      0.437808368
| 41> 1       -1.267998239     -2.224161130     -0.342532659
| 42> 1       -1.929786530      1.300472286      0.726761206
| 43> 1       -0.347021638      1.837893651      0.121212287
| 44> 1       -0.018738338      1.785987520      3.861943101
| 45> 1        0.123655269      2.817467301      2.410523464
| 46> 1       -1.477866274      2.242661351      2.954332553
| 47> 1       -1.437692534     -3.781302721      1.640708294
| 48> 1       -1.192352291     -3.143819438      3.291229974
| 49> 1       -2.643268721     -2.684811104      2.371793624
| 50> 1       -1.429500661     -0.782413374     -2.201374270
| 51> 1       -0.981253625      0.941240614     -2.096084083
| 52> 1        3.121559225     -2.074342210      0.500730325
| 53> 1        3.467691283     -0.343216228      0.764453713
| 54> 1       -2.750455564      2.579263019     -1.428936723
| 55> 1       -5.052014425      3.011765663     -0.603689691
| 56> 1       -6.528485801      1.122709707      0.062579730
| 57> 1       -5.734591961     -1.209548549     -0.168798330
| 58> 1       -3.478310909     -1.667709459     -1.157426642
| 59> 1        3.533823995      0.645824526      3.021044146
| 60> 1        3.725052639      0.295347839      5.495246755
| 61> 1        3.850002692     -2.001106951      6.408603708
| 62> 1        3.694769426     -3.958583506      4.880125083
| 63> 1        3.336786412     -3.627239961      2.443929605
| 64> **                         ****END OF INPUT****
================================================================================

                       *****************************
                       * Geometry Optimization Run *
                       *****************************

Geometry optimization settings:
Update method            Update   .... BFGS
Choice of coordinates    CoordSys .... Z-matrix Internals
Initial Hessian          InHess   .... Almoef's Model

Convergence Tolerances:
Energy Change            TolE     ....  1.0000e-06 Eh
Max. Gradient            TolMAXG  ....  1.0000e-04 Eh/bohr
RMS Gradient             TolRMSG  ....  3.0000e-05 Eh/bohr
Max. Displacement        TolMAXD  ....  1.0000e-03 bohr
RMS Displacement         TolRMSD  ....  6.0000e-04 bohr
Strict Convergence                ....  False
------------------------------------------------------------------------------
                        ORCA OPTIMIZATION COORDINATE SETUP
------------------------------------------------------------------------------

The optimization will be done in new redundant internal coordinates
Making redundant internal coordinates   ...  (new redundants) done
Evaluating the initial hessian          ...  (Almloef) done
Evaluating the coordinates              ...  done
Calculating the B-matrix                .... done
Calculating the G-matrix                .... done
Diagonalizing the G-matrix              .... done
Small eigenvalue found = 4.539e-03
Small eigenvalue found = 7.890e-03
Small eigenvalue found = 1.072e-02
Small eigenvalue found = 1.236e-02
The first mode is                       ....  253
The number of degrees of freedom        ....  159

    -----------------------------------------------------------------
                    Redundant Internal Coordinates


    -----------------------------------------------------------------
         Definition                    Initial Value    Approx d2E/dq
    -----------------------------------------------------------------
      1. B(C   1,C   0)                  1.5331         0.369299   
      2. B(N   2,C   1)                  1.4712         0.415281   
      3. B(C   3,N   2)                  1.4758         0.408377   
      4. B(C   4,C   3)                  1.5341         0.368057   
      5. B(C   5,C   0)                  1.5340         0.368172   
      6. B(N   6,C   5)                  1.4756         0.408624   
      7. B(C   7,N   6)                  1.4716         0.414698   
      8. B(C   7,C   4)                  1.5333         0.369083   
      9. B(C   8,C   4)                  1.5208         0.386428   
     10. B(C   8,C   0)                  1.5208         0.386430   
     11. B(C   9,C   4)                  1.5193         0.388499   
     12. B(C  10,C   0)                  1.5193         0.388492   
     13. B(O  11,C   8)                  1.2045         1.106104   
     14. B(C  12,N   6)                  1.4845         0.395477   
     15. B(C  13,N   2)                  1.4846         0.395315   
     16. B(C  14,C  12)                  1.4988         0.418970   
     17. B(C  15,C  14)                  1.3939         0.615990   
     18. B(C  16,C  15)                  1.3955         0.612395   
     19. B(C  17,C  16)                  1.3975         0.607777   
     20. B(C  18,C  17)                  1.3895         0.625859   
     21. B(C  19,C  18)                  1.4063         0.588426   
     22. B(C  19,C  14)                  1.4140         0.572126   
     23. B(C  20,C  13)                  1.4985         0.419355   
     24. B(C  21,C  20)                  1.4138         0.572561   
     25. B(C  22,C  21)                  1.4063         0.588517   
     26. B(C  23,C  22)                  1.3896         0.625695   
     27. B(C  24,C  23)                  1.3976         0.607624   
     28. B(C  25,C  24)                  1.3955         0.612410   
     29. B(C  25,C  20)                  1.3938         0.616125   
     30. B(Cu 26,N   6)                  2.0283         0.542812   
     31. B(Cu 26,N   2)                  2.0288         0.541810   
     32. B(Cu 26,C  13)                  2.7630         0.040764   
     33. B(Cu 26,C  12)                  2.7936         0.036429   
     34. B(H  27,C   1)                  1.1042         0.341768   
     35. B(H  28,C   1)                  1.1007         0.346249   
     36. B(H  29,C   3)                  1.1006         0.346340   
     37. B(H  30,C   3)                  1.1039         0.342226   
     38. B(H  31,C   5)                  1.1040         0.342017   
     39. B(H  32,C   5)                  1.1007         0.346254   
     40. B(H  33,C   7)                  1.1044         0.341597   
     41. B(H  34,C   7)                  1.1007         0.346176   
     42. B(H  35,C   9)                  1.0985         0.348969   
     43. B(H  36,C   9)                  1.0994         0.347850   
     44. B(H  37,C   9)                  1.0985         0.348994   
     45. B(H  38,C  10)                  1.0994         0.347830   
     46. B(H  39,C  10)                  1.0985         0.348983   
     47. B(H  40,C  10)                  1.0985         0.348985   
     48. B(H  41,C  12)                  1.0986         0.348870   
     49. B(H  42,C  12)                  1.1003         0.346676   
     50. B(H  43,C  13)                  1.1004         0.346658   
     51. B(H  44,C  13)                  1.0988         0.348584   
     52. B(H  45,C  15)                  1.0923         0.357111   
     53. B(H  46,C  16)                  1.0923         0.357111   
     54. B(H  47,C  17)                  1.0916         0.358023   
     55. B(H  48,C  18)                  1.0909         0.358951   
     56. B(H  49,C  19)                  1.1017         0.344979   
     57. B(H  50,C  21)                  1.1018         0.344829   
     58. B(H  51,C  22)                  1.0909         0.358932   
     59. B(H  52,C  23)                  1.0916         0.358017   
     60. B(H  53,C  24)                  1.0923         0.357098   
     61. B(H  54,C  25)                  1.0922         0.357209   
     62. A(C   1,C   0,C   8)          107.4757         0.364741   
     63. A(C   8,C   0,C  10)          111.9726         0.367921   
     64. A(C   5,C   0,C  10)          109.1601         0.364882   
     65. A(C   5,C   0,C   8)          106.8182         0.364550   
     66. A(C   1,C   0,C  10)          109.3119         0.365073   
     67. A(C   1,C   0,C   5)          112.1092         0.361737   
     68. A(C   0,C   1,H  28)          110.0996         0.321632   
     69. A(N   2,C   1,H  28)          108.4782         0.325928   
     70. A(C   0,C   1,N   2)          113.1970         0.366965   
     71. A(C   0,C   1,H  27)          109.1205         0.320947   
     72. A(N   2,C   1,H  27)          108.3127         0.325230   
     73. A(H  27,C   1,H  28)          107.4594         0.286704   
     74. A(C   1,N   2,Cu 26)          110.2874         0.437084   
     75. A(C   1,N   2,C  13)          111.8043         0.368959   
     76. A(C   1,N   2,C   3)          112.0957         0.371026   
     77. A(C   3,N   2,Cu 26)          108.7258         0.435766   
     78. A(C   3,N   2,C  13)          110.8828         0.367899   
     79. A(C  13,N   2,Cu 26)          102.6022         0.433224   
     80. A(H  29,C   3,H  30)          107.2075         0.286775   
     81. A(N   2,C   3,C   4)          114.2033         0.365702   
     82. A(N   2,C   3,H  30)          107.8624         0.324407   
     83. A(C   4,C   3,H  30)          108.7322         0.320841   
     84. A(N   2,C   3,H  29)          108.9016         0.325045   
     85. A(C   4,C   3,H  29)          109.6927         0.321469   
     86. A(C   3,C   4,C   9)          109.1675         0.364864   
     87. A(C   7,C   4,C   8)          107.4466         0.364704   
     88. A(C   7,C   4,C   9)          109.3112         0.365038   
     89. A(C   3,C   4,C   8)          106.8408         0.364531   
     90. A(C   3,C   4,C   7)          112.1423         0.361682   
     91. A(C   8,C   4,C   9)          111.9390         0.367922   
     92. A(N   6,C   5,H  31)          107.8312         0.324407   
     93. A(C   0,C   5,H  31)          108.6830         0.320825   
     94. A(H  31,C   5,H  32)          107.2716         0.286737   
     95. A(N   6,C   5,H  32)          108.9007         0.325064   
     96. A(C   0,C   5,H  32)          109.6974         0.321472   
     97. A(C   0,C   5,N   6)          114.2189         0.365759   
     98. A(C   5,N   6,C   7)          112.0905         0.370975   
     99. A(C   7,N   6,Cu 26)          110.2573         0.437119   
    100. A(C   5,N   6,Cu 26)          108.7794         0.435958   
    101. A(C   5,N   6,C  12)          110.0466         0.367963   
    102. A(C   7,N   6,C  12)          111.0688         0.368896   
    103. A(C  12,N   6,Cu 26)          104.2934         0.433400   
    104. A(H  33,C   7,H  34)          107.4592         0.286672   
    105. A(N   6,C   7,H  34)          108.4943         0.325841   
    106. A(C   4,C   7,H  34)          110.1187         0.321590   
    107. A(N   6,C   7,H  33)          108.3369         0.325128   
    108. A(C   4,C   7,H  33)          109.0914         0.320890   
    109. A(C   4,C   7,N   6)          113.1684         0.366840   
    110. A(C   0,C   8,O  11)          124.2231         0.439545   
    111. A(C   0,C   8,C   4)          111.5472         0.367585   
    112. A(C   4,C   8,O  11)          124.2297         0.439545   
    113. A(H  36,C   9,H  37)          108.7269         0.287850   
    114. A(C   4,C   9,H  37)          110.3751         0.324737   
    115. A(H  35,C   9,H  37)          108.0490         0.287994   
    116. A(H  35,C   9,H  36)          108.7216         0.287846   
    117. A(C   4,C   9,H  36)          110.4679         0.324562   
    118. A(C   4,C   9,H  35)          110.4355         0.324733   
    119. A(H  39,C  10,H  40)          108.0454         0.287995   
    120. A(H  38,C  10,H  40)          108.7050         0.287846   
    121. A(C   0,C  10,H  40)          110.4395         0.324735   
    122. A(H  38,C  10,H  39)          108.7200         0.287845   
    123. A(C   0,C  10,H  39)          110.4092         0.324734   
    124. A(C   0,C  10,H  38)          110.4562         0.324558   
    125. A(N   6,C  12,H  42)          109.8467         0.323388   
    126. A(N   6,C  12,C  14)          106.6267         0.371873   
    127. A(H  41,C  12,H  42)          108.4528         0.287681   
    128. A(Cu 26,C  12,H  42)           82.9969         0.248098   
    129. A(C  14,C  12,H  42)          112.9868         0.328439   
    130. A(Cu 26,C  12,H  41)           84.1614         0.248325   
    131. A(C  14,C  12,H  41)          110.8554         0.328781   
    132. A(N   6,C  12,H  41)          107.9526         0.323722   
    133. A(C  14,C  12,Cu 26)          151.3369         0.281010   
    134. A(N   6,C  12,Cu 26)           44.7136         0.276959   
    135. A(C  20,C  13,Cu 26)          152.4366         0.286000   
    136. A(N   2,C  13,Cu 26)           45.7723         0.281786   
    137. A(Cu 26,C  13,H  44)           83.2379         0.252402   
    138. A(N   2,C  13,H  44)          107.9308         0.323657   
    139. A(Cu 26,C  13,H  43)           82.6888         0.252197   
    140. A(C  20,C  13,H  43)          112.9077         0.328486   
    141. A(N   2,C  13,H  43)          109.8352         0.323363   
    142. A(H  43,C  13,H  44)          108.5146         0.287642   
    143. A(N   2,C  13,C  20)          106.6643         0.371906   
    144. A(C  20,C  13,H  44)          110.8686         0.328787   
    145. A(C  12,C  14,C  19)          117.4490         0.399083   
    146. A(C  12,C  14,C  15)          122.5185         0.404311   
    147. A(C  15,C  14,C  19)          119.5942         0.427349   
    148. A(C  16,C  15,H  45)          120.2083         0.351677   
    149. A(C  14,C  15,H  45)          119.8250         0.352025   
    150. A(C  14,C  15,C  16)          119.9661         0.432598   
    151. A(C  15,C  16,C  17)          120.6864         0.431556   
    152. A(C  17,C  16,H  46)          119.8068         0.351227   
    153. A(C  15,C  16,H  46)          119.5055         0.351677   
    154. A(C  16,C  17,C  18)          119.8956         0.433247   
    155. A(C  18,C  17,H  47)          119.9602         0.353125   
    156. A(C  16,C  17,H  47)          120.1333         0.351379   
    157. A(C  19,C  18,H  48)          120.3225         0.349617   
    158. A(C  17,C  18,H  48)          119.6474         0.353280   
    159. A(C  17,C  18,C  19)          119.9949         0.430735   
    160. A(C  18,C  19,H  49)          119.5537         0.347285   
    161. A(C  14,C  19,H  49)          119.4678         0.345648   
    162. A(C  14,C  19,C  18)          119.8519         0.423861   
    163. A(C  21,C  20,C  25)          119.6064         0.427424   
    164. A(C  13,C  20,C  25)          122.4983         0.404393   
    165. A(C  13,C  20,C  21)          117.4672         0.399201   
    166. A(C  20,C  21,H  50)          119.4440         0.345667   
    167. A(C  20,C  21,C  22)          119.8535         0.423931   
    168. A(C  22,C  21,H  50)          119.5844         0.347269   
    169. A(C  23,C  22,H  51)          119.6451         0.353261   
    170. A(C  21,C  22,H  51)          120.3290         0.349623   
    171. A(C  21,C  22,C  23)          119.9894         0.430726   
    172. A(C  24,C  23,H  52)          120.1297         0.351363   
    173. A(C  22,C  23,H  52)          119.9617         0.353109   
    174. A(C  22,C  23,C  24)          119.8974         0.433207   
    175. A(C  25,C  24,H  53)          119.5159         0.351676   
    176. A(C  23,C  24,H  53)          119.8014         0.351210   
    177. A(C  23,C  24,C  25)          120.6815         0.431539   
    178. A(C  24,C  25,H  54)          120.2945         0.351695   
    179. A(C  20,C  25,H  54)          119.7434         0.352054   
    180. A(C  20,C  25,C  24)          119.9616         0.432617   
    181. A(C  12,Cu 26,C  13)          150.4002         0.219872   
    182. A(N   6,Cu 26,C  13)          119.4101         0.328798   
    183. A(N   2,Cu 26,C  13)           31.6255         0.328698   
    184. A(N   6,Cu 26,C  12)           30.9930         0.322772   
    185. A(N   2,Cu 26,C  12)          118.7759         0.322675   
    186. A(N   2,Cu 26,N   6)           87.7916         0.517166   
    187. D(H  27,C   1,C   0,C   8)     64.6282         0.010905   
    188. D(H  28,C   1,C   0,C   8)   -177.6611         0.010905   
    189. D(H  28,C   1,C   0,C   5)    -60.5762         0.010905   
    190. D(H  28,C   1,C   0,C  10)     60.6046         0.010905   
    191. D(H  27,C   1,C   0,C  10)    -57.1061         0.010905   
    192. D(H  27,C   1,C   0,C   5)   -178.2869         0.010905   
    193. D(N   2,C   1,C   0,C   8)    -56.0600         0.010905   
    194. D(N   2,C   1,C   0,C   5)     61.0249         0.010905   
    195. D(N   2,C   1,C   0,C  10)   -177.7943         0.010905   
    196. D(C   3,N   2,C   1,H  28)    175.1396         0.015752   
    197. D(C   3,N   2,C   1,H  27)    -68.5129         0.015752   
    198. D(C  13,N   2,C   1,H  28)    -59.6368         0.015752   
    199. D(Cu 26,N   2,C   1,H  27)    170.1901         0.015752   
    200. D(Cu 26,N   2,C   1,H  28)     53.8427         0.015752   
    201. D(C   3,N   2,C   1,C   0)     52.6323         0.015752   
    202. D(C  13,N   2,C   1,H  27)     56.7107         0.015752   
    203. D(Cu 26,N   2,C   1,C   0)    -68.6647         0.015752   
    204. D(C  13,N   2,C   1,C   0)    177.8558         0.015752   
    205. D(H  30,C   3,N   2,Cu 26)   -169.4243         0.015235   
    206. D(H  29,C   3,N   2,C  13)     58.6879         0.015235   
    207. D(H  30,C   3,N   2,C  13)    -57.3443         0.015235   
    208. D(C   4,C   3,N   2,C   1)    -52.5984         0.015235   
    209. D(H  29,C   3,N   2,C   1)   -175.5832         0.015235   
    210. D(H  30,C   3,N   2,C   1)     68.3845         0.015235   
    211. D(C   4,C   3,N   2,C  13)   -178.3273         0.015235   
    212. D(C   4,C   3,N   2,Cu 26)     69.5927         0.015235   
    213. D(H  29,C   3,N   2,Cu 26)    -53.3921         0.015235   
    214. D(C   7,C   4,C   3,H  29)     60.1905         0.010836   
    215. D(C   8,C   4,C   3,N   2)     55.1111         0.010836   
    216. D(C   7,C   4,C   3,H  30)    177.1367         0.010836   
    217. D(C   7,C   4,C   3,N   2)    -62.3640         0.010836   
    218. D(C   9,C   4,C   3,H  30)     55.8428         0.010836   
    219. D(C   9,C   4,C   3,H  29)    -61.1034         0.010836   
    220. D(C   9,C   4,C   3,N   2)    176.3421         0.010836   
    221. D(C   8,C   4,C   3,H  30)    -65.3881         0.010836   
    222. D(C   8,C   4,C   3,H  29)    177.6657         0.010836   
    223. D(H  32,C   5,C   0,C  10)    -61.0671         0.010843   
    224. D(H  32,C   5,C   0,C   8)    177.6792         0.010843   
    225. D(H  32,C   5,C   0,C   1)     60.2010         0.010843   
    226. D(H  31,C   5,C   0,C  10)     55.9306         0.010843   
    227. D(H  31,C   5,C   0,C   1)    177.1988         0.010843   
    228. D(N   6,C   5,C   0,C  10)    176.3649         0.010843   
    229. D(N   6,C   5,C   0,C   8)     55.1112         0.010843   
    230. D(N   6,C   5,C   0,C   1)    -62.3670         0.010843   
    231. D(H  31,C   5,C   0,C   8)    -65.3230         0.010843   
    232. D(C  12,N   6,C   5,H  32)     60.2640         0.015254   
    233. D(C  12,N   6,C   5,H  31)    -55.8268         0.015254   
    234. D(Cu 26,N   6,C   5,H  32)    -53.4181         0.015254   
    235. D(C  12,N   6,C   5,C   0)   -176.7348         0.015254   
    236. D(Cu 26,N   6,C   5,C   0)     69.5831         0.015254   
    237. D(Cu 26,N   6,C   5,H  31)   -169.5088         0.015254   
    238. D(C   7,N   6,C   5,H  32)   -175.6050         0.015254   
    239. D(C   7,N   6,C   5,H  31)     68.3043         0.015254   
    240. D(C   7,N   6,C   5,C   0)    -52.6038         0.015254   
    241. D(H  34,C   7,C   4,C   8)   -177.7235         0.010893   
    242. D(H  33,C   7,C   4,C   9)    -57.1035         0.010893   
    243. D(H  33,C   7,C   4,C   8)     64.5722         0.010893   
    244. D(H  33,C   7,C   4,C   3)   -178.3148         0.010893   
    245. D(H  34,C   7,C   4,C   3)    -60.6105         0.010893   
    246. D(N   6,C   7,C   4,C   9)   -177.7831         0.010893   
    247. D(N   6,C   7,C   4,C   8)    -56.1075         0.010893   
    248. D(H  34,C   7,C   4,C   9)     60.6008         0.010893   
    249. D(N   6,C   7,C   4,C   3)     61.0055         0.010893   
    250. D(H  34,C   7,N   6,Cu 26)     53.8379         0.015708   
    251. D(H  34,C   7,N   6,C   5)    175.1786         0.015708   
    252. D(H  33,C   7,N   6,Cu 26)    170.2067         0.015708   
    253. D(H  33,C   7,N   6,C  12)     55.1068         0.015708   
    254. D(H  33,C   7,N   6,C   5)    -68.4526         0.015708   
    255. D(C   4,C   7,N   6,Cu 26)    -68.6864         0.015708   
    256. D(H  34,C   7,N   6,C  12)    -61.2620         0.015708   
    257. D(C   4,C   7,N   6,C  12)    176.2137         0.015708   
    258. D(C   4,C   7,N   6,C   5)     52.6543         0.015708   
    259. D(O  11,C   8,C   4,C   9)      0.7659         0.011121   
    260. D(O  11,C   8,C   4,C   7)   -119.2535         0.011121   
    261. D(O  11,C   8,C   4,C   3)    120.2214         0.011121   
    262. D(C   0,C   8,C   4,C   9)   -179.2217         0.011121   
    263. D(C   0,C   8,C   4,C   7)     60.7589         0.011121   
    264. D(C   0,C   8,C   4,C   3)    -59.7662         0.011121   
    265. D(O  11,C   8,C   0,C  10)      0.7604         0.011121   
    266. D(O  11,C   8,C   0,C   5)    120.2118         0.011121   
    267. D(O  11,C   8,C   0,C   1)   -119.2988         0.011121   
    268. D(C   4,C   8,C   0,C  10)   -179.2520         0.011121   
    269. D(C   4,C   8,C   0,C   5)    -59.8006         0.011121   
    270. D(C   4,C   8,C   0,C   1)     60.6888         0.011121   
    271. D(H  37,C   9,C   4,C   8)    -60.0930         0.012003   
    272. D(H  37,C   9,C   4,C   7)     58.8301         0.012003   
    273. D(H  37,C   9,C   4,C   3)   -178.1710         0.012003   
    274. D(H  36,C   9,C   4,C   8)    179.6294         0.012003   
    275. D(H  36,C   9,C   4,C   7)    -61.4474         0.012003   
    276. D(H  36,C   9,C   4,C   3)     61.5515         0.012003   
    277. D(H  35,C   9,C   4,C   8)     59.3193         0.012003   
    278. D(H  35,C   9,C   4,C   7)    178.2424         0.012003   
    279. D(H  35,C   9,C   4,C   3)    -58.7587         0.012003   
    280. D(H  40,C  10,C   0,C   8)     59.1649         0.012003   
    281. D(H  40,C  10,C   0,C   5)    -58.9007         0.012003   
    282. D(H  40,C  10,C   0,C   1)    178.1457         0.012003   
    283. D(H  39,C  10,C   0,C   8)    -60.2673         0.012003   
    284. D(H  39,C  10,C   0,C   5)   -178.3329         0.012003   
    285. D(H  39,C  10,C   0,C   1)     58.7135         0.012003   
    286. D(H  38,C  10,C   0,C   8)    179.4493         0.012003   
    287. D(H  38,C  10,C   0,C   5)     61.3836         0.012003   
    288. D(H  38,C  10,C   0,C   1)    -61.5699         0.012003   
    289. D(H  42,C  12,N   6,Cu 26)    -56.7148         0.015187   
    290. D(H  42,C  12,N   6,C   7)     62.0388         0.015187   
    291. D(H  41,C  12,N   6,C   5)    -55.1621         0.015187   
    292. D(Cu 26,C  12,N   6,C   5)   -116.5257         0.015187   
    293. D(C  14,C  12,N   6,C   7)    -60.7184         0.015187   
    294. D(C  14,C  12,N   6,C   5)     64.0023         0.015187   
    295. D(C  14,C  12,N   6,Cu 26)   -179.4720         0.015187   
    296. D(Cu 26,C  12,N   6,C   7)    118.7536         0.015187   
    297. D(H  42,C  12,N   6,C   5)   -173.2406         0.015187   
    298. D(H  41,C  12,N   6,Cu 26)     61.3637         0.015187   
    299. D(H  41,C  12,N   6,C   7)   -179.8827         0.015187   
    300. D(H  44,C  13,N   2,Cu 26)     60.8114         0.015174   
    301. D(H  44,C  13,N   2,C   1)    178.9825         0.015174   
    302. D(H  43,C  13,N   2,Cu 26)    -57.3222         0.015174   
    303. D(H  43,C  13,N   2,C   3)   -173.2596         0.015174   
    304. D(H  43,C  13,N   2,C   1)     60.8488         0.015174   
    305. D(Cu 26,C  13,N   2,C   3)   -115.9373         0.015174   
    306. D(Cu 26,C  13,N   2,C   1)    118.1710         0.015174   
    307. D(C  20,C  13,N   2,Cu 26)    180.0000         0.015174   
    308. D(H  44,C  13,N   2,C   3)    -55.1259         0.015174   
    309. D(C  20,C  13,N   2,C   3)     64.0627         0.015174   
    310. D(C  20,C  13,N   2,C   1)    -61.8290         0.015174   
    311. D(C  15,C  14,C  12,H  41)   -144.5208         0.013890   
    312. D(C  15,C  14,C  12,Cu 26)     97.4467         0.013890   
    313. D(C  15,C  14,C  12,N   6)     98.2212         0.013890   
    314. D(C  19,C  14,C  12,H  42)    165.0908         0.013890   
    315. D(C  19,C  14,C  12,H  41)     43.1164         0.013890   
    316. D(C  19,C  14,C  12,Cu 26)    -74.9162         0.013890   
    317. D(C  19,C  14,C  12,N   6)    -74.1417         0.013890   
    318. D(C  15,C  14,C  12,H  42)    -22.5463         0.013890   
    319. D(H  45,C  15,C  14,C  19)    179.9456         0.026236   
    320. D(H  45,C  15,C  14,C  12)      7.7407         0.026236   
    321. D(C  16,C  15,C  14,C  19)      0.2124         0.026236   
    322. D(C  16,C  15,C  14,C  12)   -171.9925         0.026236   
    323. D(H  46,C  16,C  15,H  45)      0.3902         0.025913   
    324. D(H  46,C  16,C  15,C  14)   -179.8777         0.025913   
    325. D(C  17,C  16,C  15,H  45)   -179.1965         0.025913   
    326. D(C  17,C  16,C  15,C  14)      0.5356         0.025913   
    327. D(H  47,C  17,C  16,H  46)      0.4074         0.025501   
    328. D(H  47,C  17,C  16,C  15)    179.9929         0.025501   
    329. D(C  18,C  17,C  16,H  46)    179.2051         0.025501   
    330. D(C  18,C  17,C  16,C  15)     -1.2094         0.025501   
    331. D(H  48,C  18,C  17,H  47)      2.0742         0.027136   
    332. D(H  48,C  18,C  17,C  16)   -176.7256         0.027136   
    333. D(C  19,C  18,C  17,H  47)    179.9226         0.027136   
    334. D(C  19,C  18,C  17,C  16)      1.1228         0.027136   
    335. D(H  49,C  19,C  18,H  48)      9.6482         0.023821   
    336. D(H  49,C  19,C  18,C  17)   -168.1855         0.023821   
    337. D(C  14,C  19,C  18,H  48)    177.4535         0.023821   
    338. D(C  14,C  19,C  18,C  17)     -0.3802         0.023821   
    339. D(H  49,C  19,C  14,C  15)    167.5260         0.022461   
    340. D(H  49,C  19,C  14,C  12)    -19.8786         0.022461   
    341. D(C  18,C  19,C  14,C  15)     -0.2898         0.022461   
    342. D(C  18,C  19,C  14,C  12)    172.3056         0.022461   
    343. D(C  25,C  20,C  13,H  44)   -144.3380         0.013915   
    344. D(C  25,C  20,C  13,H  43)    -22.3300         0.013915   
    345. D(C  25,C  20,C  13,Cu 26)     98.4010         0.013915   
    346. D(C  25,C  20,C  13,N   2)     98.4010         0.013915   
    347. D(C  21,C  20,C  13,H  44)     43.2098         0.013915   
    348. D(C  21,C  20,C  13,H  43)    165.2179         0.013915   
    349. D(C  21,C  20,C  13,Cu 26)    -74.0511         0.013915   
    350. D(C  21,C  20,C  13,N   2)    -74.0511         0.013915   
    351. D(H  50,C  21,C  20,C  25)    167.5910         0.022497   
    352. D(H  50,C  21,C  20,C  13)    -19.7296         0.022497   
    353. D(C  22,C  21,C  20,C  25)     -0.2743         0.022497   
    354. D(C  22,C  21,C  20,C  13)    172.4051         0.022497   
    355. D(H  51,C  22,C  21,H  50)      9.6036         0.023829   
    356. D(H  51,C  22,C  21,C  20)    177.4518         0.023829   
    357. D(C  23,C  22,C  21,H  50)   -168.1933         0.023829   
    358. D(C  23,C  22,C  21,C  20)     -0.3451         0.023829   
    359. D(H  52,C  23,C  22,H  51)      2.0455         0.027121   
    360. D(H  52,C  23,C  22,C  21)    179.8575         0.027121   
    361. D(C  24,C  23,C  22,H  51)   -176.7432         0.027121   
    362. D(C  24,C  23,C  22,C  21)      1.0689         0.027121   
    363. D(H  53,C  24,C  23,H  52)      0.4243         0.025488   
    364. D(H  53,C  24,C  23,C  22)    179.2109         0.025488   
    365. D(C  25,C  24,C  23,H  52)   -179.9735         0.025488   
    366. D(C  25,C  24,C  23,C  22)     -1.1869         0.025488   
    367. D(H  54,C  25,C  24,H  53)      0.4148         0.025914   
    368. D(H  54,C  25,C  24,C  23)   -179.1886         0.025914   
    369. D(C  20,C  25,C  24,H  53)   -179.8327         0.025914   
    370. D(C  20,C  25,C  24,C  23)      0.5639         0.025914   
    371. D(H  54,C  25,C  20,C  21)    179.9194         0.026248   
    372. D(H  54,C  25,C  20,C  13)      7.6230         0.026248   
    373. D(C  24,C  25,C  20,C  21)      0.1655         0.026248   
    374. D(C  24,C  25,C  20,C  13)   -172.1309         0.026248   
    375. D(C  12,Cu 26,C  13,H  44)   -122.5495         0.001510   
    376. D(C  12,Cu 26,C  13,H  43)    127.7194         0.001510   
    377. D(C  12,Cu 26,C  13,C  20)      0.6850         0.001510   
    378. D(N   6,Cu 26,C  13,H  44)   -121.9148         0.001510   
    379. D(N   6,Cu 26,C  13,H  43)    128.3541         0.001510   
    380. D(N   6,Cu 26,C  13,C  20)      1.3197         0.001510   
    381. D(N   2,Cu 26,C  13,H  44)   -123.2345         0.001510   
    382. D(N   2,Cu 26,C  13,H  43)    127.0344         0.001510   
    383. D(N   2,Cu 26,C  13,C  20)     -0.0000         0.001510   
    384. D(C  13,Cu 26,C  12,H  41)   -121.8598         0.001508   
    385. D(C  13,Cu 26,C  12,C  14)      2.1286         0.001508   
    386. D(C  13,Cu 26,C  12,N   6)      1.0738         0.001508   
    387. D(N   6,Cu 26,C  12,H  42)    127.6077         0.001508   
    388. D(N   6,Cu 26,C  12,H  41)   -122.9336         0.001508   
    389. D(N   6,Cu 26,C  12,C  14)      1.0548         0.001508   
    390. D(N   2,Cu 26,C  12,H  42)    129.0912         0.001508   
    391. D(N   2,Cu 26,C  12,H  41)   -121.4501         0.001508   
    392. D(N   2,Cu 26,C  12,C  14)      2.5384         0.001508   
    393. D(N   2,Cu 26,C  12,N   6)      1.4836         0.001508   
    394. D(C  13,Cu 26,N   6,C  12)   -179.3912         0.002948   
    395. D(C  13,Cu 26,N   6,C   7)     61.3038         0.002948   
    396. D(C  13,Cu 26,N   6,C   5)    -61.9876         0.002948   
    397. D(C  12,Cu 26,N   6,C   7)   -119.3051         0.002948   
    398. D(C  12,Cu 26,N   6,C   5)    117.4036         0.002948   
    399. D(N   2,Cu 26,N   6,C  12)   -178.6987         0.002948   
    400. D(C  13,Cu 26,C  12,H  42)    128.6815         0.001508   
    401. D(N   2,Cu 26,N   6,C   7)     61.9962         0.002948   
    402. D(N   2,Cu 26,N   6,C   5)    -61.2951         0.002948   
    403. D(C  13,Cu 26,N   2,C   3)    117.4812         0.002943   
    404. D(N   6,Cu 26,C  13,N   2)      1.3197         0.001510   
    405. D(C  13,Cu 26,N   2,C   1)   -119.2370         0.002943   
    406. D(C  12,Cu 26,N   2,C  13)   -179.6140         0.002943   
    407. D(C  12,Cu 26,N   2,C   3)    -62.1328         0.002943   
    408. D(C  12,Cu 26,C  13,N   2)      0.6850         0.001510   
    409. D(C  12,Cu 26,N   2,C   1)     61.1490         0.002943   
    410. D(N   6,Cu 26,N   2,C  13)   -178.8496         0.002943   
    411. D(N   6,Cu 26,N   2,C   3)    -61.3684         0.002943   
    412. D(N   6,Cu 26,N   2,C   1)     61.9134         0.002943   
    -----------------------------------------------------------------

Number of atoms                         .... 55
Number of degrees of freedom            .... 412

         *************************************************************
         *                GEOMETRY OPTIMIZATION CYCLE   1            *
         *************************************************************
---------------------------------
CARTESIAN COORDINATES (ANGSTROEM)
---------------------------------
  C     -0.828513   -1.705763    1.716789
  C      0.670706   -2.020366    1.654602
  N      1.478932   -0.895029    1.159842
  C      1.214631    0.349365    1.907824
  C     -0.268977    0.730791    1.989874
  C     -1.405417   -1.368505    0.336032
  N     -0.820480   -0.165592   -0.287035
  C     -0.873275    1.002043    0.607039
  C     -0.999455   -0.465430    2.580014
  C     -0.418181    1.970562    2.855373
  C     -1.569792   -2.902605    2.288167
  O     -1.633961   -0.434492    3.603398
  C     -1.497001    0.119254   -1.577342
  C      2.928632   -1.215051    1.160413
  C     -2.925040    0.437191   -1.251813
  C     -3.396652    1.744719   -1.147836
  C     -4.689429    1.984282   -0.680248
  C     -5.518798    0.924955   -0.302056
  C     -5.065427   -0.383738   -0.414263
  C     -3.765304   -0.639419   -0.885497
  C      3.310405   -1.476597    2.585700
  C      3.409523   -0.361681    3.449338
  C      3.606028   -0.559227    4.827741
  C      3.695140   -1.848322    5.338922
  C      3.611587   -2.946315    4.478296
  C      3.414351   -2.764288    3.108900
  Cu     1.098894   -0.566653   -0.805798
  H      1.026931   -2.285274    2.665658
  H      0.848023   -2.889995    1.003608
  H      1.783708    1.170554    1.446160
  H      1.604018    0.217808    2.932311
  H     -2.492071   -1.202085    0.437808
  H     -1.267998   -2.224161   -0.342533
  H     -1.929787    1.300472    0.726761
  H     -0.347022    1.837894    0.121212
  H     -0.018738    1.785988    3.861943
  H      0.123655    2.817467    2.410523
  H     -1.477866    2.242661    2.954333
  H     -1.437693   -3.781303    1.640708
  H     -1.192352   -3.143819    3.291230
  H     -2.643269   -2.684811    2.371794
  H     -1.429501   -0.782413   -2.201374
  H     -0.981254    0.941241   -2.096084
  H      3.121559   -2.074342    0.500730
  H      3.467691   -0.343216    0.764454
  H     -2.750456    2.579263   -1.428937
  H     -5.052014    3.011766   -0.603690
  H     -6.528486    1.122710    0.062580
  H     -5.734592   -1.209549   -0.168798
  H     -3.478311   -1.667709   -1.157427
  H      3.533824    0.645825    3.021044
  H      3.725053    0.295348    5.495247
  H      3.850003   -2.001107    6.408604
  H      3.694769   -3.958584    4.880125
  H      3.336786   -3.627240    2.443930

----------------------------
CARTESIAN COORDINATES (A.U.)
----------------------------
  NO LB      ZA    FRAG     MASS         X           Y           Z
   0 C     6.0000    0    12.011   -1.565662   -3.223425    3.244261
   1 C     6.0000    0    12.011    1.267450   -3.817938    3.126745
   2 N     7.0000    0    14.007    2.794777   -1.691359    2.191785
   3 C     6.0000    0    12.011    2.295319    0.660204    3.605265
   4 C     6.0000    0    12.011   -0.508294    1.380995    3.760316
   5 C     6.0000    0    12.011   -2.655854   -2.586100    0.635009
   6 N     7.0000    0    14.007   -1.550482   -0.312924   -0.542417
   7 C     6.0000    0    12.011   -1.650251    1.893586    1.147137
   8 C     6.0000    0    12.011   -1.888696   -0.879535    4.875520
   9 C     6.0000    0    12.011   -0.790249    3.723822    5.395874
  10 C     6.0000    0    12.011   -2.966478   -5.485129    4.324009
  11 O     8.0000    0    15.999   -3.087739   -0.821071    6.809435
  12 C     6.0000    0    12.011   -2.828922    0.225357   -2.980745
  13 C     6.0000    0    12.011    5.534312   -2.296115    2.192862
  14 C     6.0000    0    12.011   -5.527525    0.826172   -2.365583
  15 C     6.0000    0    12.011   -6.418743    3.297041   -2.169095
  16 C     6.0000    0    12.011   -8.861737    3.749750   -1.285482
  17 C     6.0000    0    12.011  -10.429017    1.747912   -0.570803
  18 C     6.0000    0    12.011   -9.572269   -0.725160   -0.782844
  19 C     6.0000    0    12.011   -7.115394   -1.208326   -1.673347
  20 C     6.0000    0    12.011    6.255759   -2.790364    4.886265
  21 C     6.0000    0    12.011    6.443064   -0.683478    6.518305
  22 C     6.0000    0    12.011    6.814406   -1.056786    9.123109
  23 C     6.0000    0    12.011    6.982803   -3.492822   10.089100
  24 C     6.0000    0    12.011    6.824910   -5.567729    8.462754
  25 C     6.0000    0    12.011    6.452188   -5.223747    5.874969
  26 Cu   29.0000    0    63.550    2.076609   -1.070819   -1.522737
  27 H     1.0000    0     1.008    1.940619   -4.318543    5.037364
  28 H     1.0000    0     1.008    1.602531   -5.461299    1.896545
  29 H     1.0000    0     1.008    3.370719    2.212026    2.732846
  30 H     1.0000    0     1.008    3.031156    0.411597    5.541264
  31 H     1.0000    0     1.008   -4.709332   -2.271611    0.827338
  32 H     1.0000    0     1.008   -2.396169   -4.203055   -0.647293
  33 H     1.0000    0     1.008   -3.646768    2.457536    1.373380
  34 H     1.0000    0     1.008   -0.655776    3.473116    0.229058
  35 H     1.0000    0     1.008   -0.035410    3.375027    7.298015
  36 H     1.0000    0     1.008    0.233675    5.324242    4.555229
  37 H     1.0000    0     1.008   -2.792763    4.238016    5.582879
  38 H     1.0000    0     1.008   -2.716845   -7.145627    3.100489
  39 H     1.0000    0     1.008   -2.253219   -5.940958    6.219523
  40 H     1.0000    0     1.008   -4.995054   -5.073558    4.482040
  41 H     1.0000    0     1.008   -2.701365   -1.478547   -4.159994
  42 H     1.0000    0     1.008   -1.854301    1.778687   -3.961025
  43 H     1.0000    0     1.008    5.898892   -3.919939    0.946243
  44 H     1.0000    0     1.008    6.552987   -0.648585    1.444608
  45 H     1.0000    0     1.008   -5.197608    4.874101   -2.700299
  46 H     1.0000    0     1.008   -9.546924    5.691412   -1.140808
  47 H     1.0000    0     1.008  -12.337050    2.121614    0.118259
  48 H     1.0000    0     1.008  -10.836808   -2.285716   -0.318983
  49 H     1.0000    0     1.008   -6.573055   -3.151514   -2.187219
  50 H     1.0000    0     1.008    6.677960    1.220431    5.708946
  51 H     1.0000    0     1.008    7.039329    0.558127   10.384511
  52 H     1.0000    0     1.008    7.275451   -3.781544   12.110506
  53 H     1.0000    0     1.008    6.982102   -7.480639    9.222100
  54 H     1.0000    0     1.008    6.305612   -6.854490    4.618358

--------------------------------
INTERNAL COORDINATES (ANGSTROEM)
--------------------------------
 C      0   0   0     0.000000000000     0.00000000     0.00000000
 C      1   0   0     1.533133565260     0.00000000     0.00000000
 N      2   1   0     1.471190273137   113.19703790     0.00000000
 C      3   2   1     1.475753472641   112.09573105    52.63226376
 C      4   3   2     1.534050332060   114.20329871   307.40159956
 C      1   2   3     1.533965740785   112.10916699    61.02487265
 N      6   1   2     1.475589169537   114.21889064   297.63300244
 C      7   6   1     1.471572388153   112.09049053   307.39622400
 C      1   2   3     1.520790732858   107.47565287   303.94000308
 C      5   4   3     1.519336496847   109.16753806   176.34207520
 C      1   2   3     1.519341559297   109.31191919   182.20565184
 O      9   1   2     1.204520552978   124.22306403   240.70121082
 C      7   6   1     1.484490593505   110.04664246   183.26518482
 C      3   2   1     1.484602439965   111.80433433   177.85584367
 C     13   7   6     1.498782654881   106.62668752    64.00226837
 C     15  13   7     1.393864157859   122.51845849    98.22117445
 C     16  15  13     1.395457361689   119.96613145   188.00752466
 C     17  16  15     1.397517899210   120.68641144     0.53559888
 C     18  17  16     1.389537289816   119.89560918   358.79055358
 C     19  18  17     1.406325747036   119.99494293     1.12280353
 C     14   3   2     1.498532793048   106.66428249   298.17104531
 C     21  14   3     1.413765556579   117.46716715   285.94889250
 C     22  21  14     1.406283604882   119.85348609   172.40508649
 C     23  22  21     1.389608597484   119.98942471   359.65487051
 C     24  23  22     1.397586296786   119.89744153     1.06887220
 C     21  14   3     1.393804434248   122.49826315    98.40103088
 Cu     7   6   1     2.028290015869   108.77938758    69.58312346
 H      2   1   3     1.104222682042   109.12050901   120.68820767
 H      2   1   3     1.100676696325   110.09957242   238.39891262
 H      4   3   2     1.100605796628   108.90161380   184.41677436
 H      4   3   2     1.103858095712   107.86236361    68.38452887
 H      6   1   2     1.104024924592   108.68300983   177.19877078
 H      6   1   2     1.100673417631   109.69742843    60.20104122
 H      8   7   6     1.104359396148   108.33690771   291.54744606
 H      8   7   6     1.100734851164   108.49429490   175.17860611
 H     10   5   4     1.098546781285   110.43549376   301.24132420
 H     10   5   4     1.099421337209   110.46789834    61.55146032
 H     10   5   4     1.098527571311   110.37513655   181.82901412
 H     11   1   2     1.099437352211   110.45615018   298.43005207
 H     11   1   2     1.098535939293   110.40916175    58.71351638
 H     11   1   2     1.098534936531   110.43954319   178.14569342
 H     13   7   6     1.098624611815   107.95258859   304.83794389
 H     13   7   6     1.100341384840   109.84667103   186.75943991
 H     14   3   2     1.100355646670   109.83518789    60.84880077
 H     14   3   2     1.098847270812   107.93081350   178.98247342
 H     16  15  13     1.092269242361   119.82503100     7.74067687
 H     17  16  15     1.092269006165   119.50551093   180.12232398
 H     18  17  16     1.091574551484   120.13329193   179.99287819
 H     19  18  17     1.090870281208   119.64736909   183.27442011
 H     20  19  18     1.101677321410   119.55366227   191.81450562
 H     22  21  14     1.101795880053   119.44400221   340.27038676
 H     23  22  21     1.090884295903   120.32901174   177.45178878
 H     24  23  22     1.091578943296   119.96169634   179.85751828
 H     25  24  23     1.092278614495   119.80139463   179.21086781
 H     26  21  14     1.092193975583   119.74339997     7.62304282

---------------------------
INTERNAL COORDINATES (A.U.)
---------------------------
 C      0   0   0     0.000000000000     0.00000000     0.00000000
 C      1   0   0     2.897202565063     0.00000000     0.00000000
 N      2   1   0     2.780146707117   113.19703790     0.00000000
 C      3   2   1     2.788769904475   112.09573105    52.63226376
 C      4   3   2     2.898935003244   114.20329871   307.40159956
 C      1   2   3     2.898775148902   112.10916699    61.02487265
 N      6   1   2     2.788459416605   114.21889064   297.63300244
 C      7   6   1     2.780868799850   112.09049053   307.39622400
 C      1   2   3     2.873877992106   107.47565287   303.94000308
 C      5   4   3     2.871129884313   109.16753806   176.34207520
 C      1   2   3     2.871139450956   109.31191919   182.20565184
 O      9   1   2     2.276213967807   124.22306403   240.70121082
 C      7   6   1     2.805280670106   110.04664246   183.26518482
 C      3   2   1     2.805492029284   111.80433433   177.85584367
 C     13   7   6     2.832288751997   106.62668752    64.00226837
 C     15  13   7     2.634021526243   122.51845849    98.22117445
 C     16  15  13     2.637032245156   119.96613145   188.00752466
 C     17  16  15     2.640926096759   120.68641144     0.53559888
 C     18  17  16     2.625844930623   119.89560918   358.79055358
 C     19  18  17     2.657570516980   119.99494293     1.12280353
 C     14   3   2     2.831816581561   106.66428249   298.17104531
 C     21  14   3     2.671629719505   117.46716715   285.94889250
 C     22  21  14     2.657490879850   119.85348609   172.40508649
 C     23  22  21     2.625979682588   119.98942471   359.65487051
 C     24  23  22     2.641055349446   119.89744153     1.06887220
 C     21  14   3     2.633908664975   122.49826315    98.40103088
 Cu     7   6   1     3.832912650160   108.77938758    69.58312346
 H      2   1   3     2.086678459923   109.12050901   120.68820767
 H      2   1   3     2.079977518043   110.09957242   238.39891262
 H      4   3   2     2.079843537032   108.90161380   184.41677436
 H      4   3   2     2.085989491608   107.86236361    68.38452887
 H      6   1   2     2.086304752502   108.68300983   177.19877078
 H      6   1   2     2.079971322209   109.69742843    60.20104122
 H      8   7   6     2.086936812142   108.33690771   291.54744606
 H      8   7   6     2.080087414763   108.49429490   175.17860611
 H     10   5   4     2.075952561930   110.43549376   301.24132420
 H     10   5   4     2.077605233114   110.46789834    61.55146032
 H     10   5   4     2.075916260339   110.37513655   181.82901412
 H     11   1   2     2.077635497082   110.45615018   298.43005207
 H     11   1   2     2.075932073533   110.40916175    58.71351638
 H     11   1   2     2.075930178587   110.43954319   178.14569342
 H     13   7   6     2.076099640316   107.95258859   304.83794389
 H     13   7   6     2.079343871167   109.84667103   186.75943991
 H     14   3   2     2.079370822120   109.83518789    60.84880077
 H     14   3   2     2.076520404842   107.93081350   178.98247342
 H     16  15  13     2.064089732568   119.82503100     7.74067687
 H     17  16  15     2.064089286223   119.50551093   180.12232398
 H     18  17  16     2.062776957063   120.13329193   179.99287819
 H     19  18  17     2.061446079117   119.64736909   183.27442011
 H     20  19  18     2.081868425417   119.55366227   191.81450562
 H     22  21  14     2.082092468784   119.44400221   340.27038676
 H     23  22  21     2.061472563052   120.32901174   177.45178878
 H     24  23  22     2.062785256385   119.96169634   179.85751828
 H     25  24  23     2.064107443334   119.80139463   179.21086781
 H     26  21  14     2.063947498970   119.74339997     7.62304282

---------------------
BASIS SET INFORMATION
---------------------
There are 5 groups of distinct atoms

 Group   1 Type C   : 7s4p1d contracted to 3s2p1d pattern {511/31/1}
 Group   2 Type N   : 7s4p1d contracted to 3s2p1d pattern {511/31/1}
 Group   3 Type O   : 7s4p1d contracted to 3s2p1d pattern {511/31/1}
 Group   4 Type Cu  : 14s9p5d1f contracted to 5s3p2d1f pattern {63311/531/41/1}
 Group   5 Type H   : 4s1p contracted to 2s1p pattern {31/1}

Atom   0C    basis set group =>   1
Atom   1C    basis set group =>   1
Atom   2N    basis set group =>   2
Atom   3C    basis set group =>   1
Atom   4C    basis set group =>   1
Atom   5C    basis set group =>   1
Atom   6N    basis set group =>   2
Atom   7C    basis set group =>   1
Atom   8C    basis set group =>   1
Atom   9C    basis set group =>   1
Atom  10C    basis set group =>   1
Atom  11O    basis set group =>   3
Atom  12C    basis set group =>   1
Atom  13C    basis set group =>   1
Atom  14C    basis set group =>   1
Atom  15C    basis set group =>   1
Atom  16C    basis set group =>   1
Atom  17C    basis set group =>   1
Atom  18C    basis set group =>   1
Atom  19C    basis set group =>   1
Atom  20C    basis set group =>   1
Atom  21C    basis set group =>   1
Atom  22C    basis set group =>   1
Atom  23C    basis set group =>   1
Atom  24C    basis set group =>   1
Atom  25C    basis set group =>   1
Atom  26Cu   basis set group =>   4
Atom  27H    basis set group =>   5
Atom  28H    basis set group =>   5
Atom  29H    basis set group =>   5
Atom  30H    basis set group =>   5
Atom  31H    basis set group =>   5
Atom  32H    basis set group =>   5
Atom  33H    basis set group =>   5
Atom  34H    basis set group =>   5
Atom  35H    basis set group =>   5
Atom  36H    basis set group =>   5
Atom  37H    basis set group =>   5
Atom  38H    basis set group =>   5
Atom  39H    basis set group =>   5
Atom  40H    basis set group =>   5
Atom  41H    basis set group =>   5
Atom  42H    basis set group =>   5
Atom  43H    basis set group =>   5
Atom  44H    basis set group =>   5
Atom  45H    basis set group =>   5
Atom  46H    basis set group =>   5
Atom  47H    basis set group =>   5
Atom  48H    basis set group =>   5
Atom  49H    basis set group =>   5
Atom  50H    basis set group =>   5
Atom  51H    basis set group =>   5
Atom  52H    basis set group =>   5
Atom  53H    basis set group =>   5
Atom  54H    basis set group =>   5
------------------------------------------------------------------------------
                           ORCA GTO INTEGRAL CALCULATION
------------------------------------------------------------------------------

                         BASIS SET STATISTICS AND STARTUP INFO

 # of primitive gaussian shells          ...  481
 # of primitive gaussian functions       ...  893
 # of contracted shells                  ...  251
 # of contracted basis functions         ...  535
 Highest angular momentum                ...    3
 Maximum contraction depth               ...    6
 Integral package used                   ... LIBINT
 Integral threshhold            Thresh   ...  2.500e-11
 Primitive cut-off              TCut     ...  2.500e-12


------------------------------ INTEGRAL EVALUATION ----------------------------


 * One electron integrals 
 Pre-screening matrix                    ... done
 Shell pair data                         ... done (   0.031 sec)

-------------------------------------------------------------------------------
                                 ORCA SCF
-------------------------------------------------------------------------------

------------
SCF SETTINGS
------------
Hamiltonian:
 Density Functional     Method          .... DFT(GTOs)
 Exchange Functional    Exchange        .... PBE
   PBE kappa parameter   XKappa         ....  0.804000
   PBE mue parameter    XMuePBE         ....  0.219520
 Correlation Functional Correlation     .... PBE
   PBE beta parameter  CBetaPBE         ....  0.066725
 LDA part of GGA corr.  LDAOpt          .... PW91-LDA
 Gradients option       PostSCFGGA      .... off
 Hybrid DFT is turned on
   Fraction HF Exchange ScalHFX         ....  0.250000
   Scaling of DF-GGA-X  ScalDFX         ....  0.750000
   Scaling of DF-GGA-C  ScalDFC         ....  1.000000
   Scaling of DF-LDA-C  ScalLDAC        ....  1.000000
   Perturbative correction              ....  0.000000
   Density functional embedding theory  .... OFF
   NL short-range parameter             ....  6.900000


General Settings:
 Integral files         IntName         .... CuL
 Hartree-Fock type      HFTyp           .... UHF
 Total Charge           Charge          ....    2
 Multiplicity           Mult            ....    2
 Number of Electrons    NEL             ....  215
 Basis Dimension        Dim             ....  535
 Nuclear Repulsion      ENuc            ....   3181.2217152889 Eh

Convergence Acceleration:
 DIIS                   CNVDIIS         .... on
   Start iteration      DIISMaxIt       ....    12
   Startup error        DIISStart       ....  0.200000
   # of expansion vecs  DIISMaxEq       ....     5
   Bias factor          DIISBfac        ....   1.050
   Max. coefficient     DIISMaxC        ....  10.000
 Newton-Raphson         CNVNR           .... off
 SOSCF                  CNVSOSCF        .... off
 Level Shifting         CNVShift        .... on
   Level shift para.    LevelShift      ....    0.2500
   Turn off err/grad.   ShiftErr        ....    0.0010
 Zerner damping         CNVZerner       .... off
 Static damping         CNVDamp         .... on
   Fraction old density DampFac         ....    0.7000
   Max. Damping (<1)    DampMax         ....    0.9800
   Min. Damping (>=0)   DampMin         ....    0.0000
   Turn off err/grad.   DampErr         ....    0.1000
 Fernandez-Rico         CNVRico         .... off

SCF Procedure:
 Maximum # iterations   MaxIter         ....   125
 SCF integral mode      SCFMode         .... Direct
   Integral package                     .... LIBINT
 Reset frequency        DirectResetFreq ....    20
 Integral Threshold     Thresh          ....  2.500e-11 Eh
 Primitive CutOff       TCut            ....  2.500e-12 Eh

Convergence Tolerance:
 Convergence Check Mode ConvCheckMode   .... Total+1el-Energy
 Convergence forced     ConvForced      .... 0
 Energy Change          TolE            ....  1.000e-08 Eh
 1-El. energy change                    ....  1.000e-05 Eh
 DIIS Error             TolErr          ....  5.000e-07


Diagonalization of the overlap matrix:
Smallest eigenvalue                        ... 2.697e-04
Time for diagonalization                   ...    0.142 sec
Threshold for overlap eigenvalues          ... 1.000e-08
Number of eigenvalues below threshold      ... 0
Time for construction of square roots      ...    0.085 sec
Total time needed                          ...    0.229 sec

-------------------
DFT GRID GENERATION
-------------------

General Integration Accuracy     IntAcc      ...  4.670
Radial Grid Type                 RadialGrid  ... Gauss-Chebyshev
Angular Grid (max. acc.)         AngularGrid ... Lebedev-302
Angular grid pruning method      GridPruning ... 3 (G Style)
Weight generation scheme         WeightScheme... Becke
Basis function cutoff            BFCut       ...    1.0000e-11
Integration weight cutoff        WCut        ...    1.0000e-14
Grids for H and He will be reduced by one unit

# of grid points (after initial pruning)     ... 266100 (   1.3 sec)
# of grid points (after weights+screening)   ... 223830 (   6.5 sec)
nearest neighbour list constructed           ...    0.0 sec
Grid point re-assignment to atoms done       ...    0.2 sec
Grid point division into batches done        ...    1.2 sec
Reduced shell lists constructed in   14.0 sec

Total number of grid points                  ...   223830
Total number of batches                      ...     3525
Average number of points per batch           ...       63
Average number of grid points per atom       ...     4070
Average number of shells per batch           ...   111.34 (44.36%)
Average number of basis functions per batch  ...   216.12 (40.40%)
Average number of large shells per batch     ...    70.97 (63.74%)
Average number of large basis fcns per batch ...   137.21 (63.49%)
Maximum spatial batch extension              ...  20.64, 20.93, 22.76 au
Average spatial batch extension              ...   2.07,  2.08,  2.12 au

Time for grid setup =   21.869 sec

------------------------------
INITIAL GUESS: MODEL POTENTIAL
------------------------------
Loading Hartree-Fock densities                     ... done
Calculating cut-offs                               ... done
Setting up the integral package                    ... done
Initializing the effective Hamiltonian             ... done
Starting the Coulomb interaction                   ... done (   5.5 sec)
Reading the grid                                   ... done
Mapping shells                                     ... done
Starting the XC term evaluation                    ... done (  14.2 sec)
  promolecular density results
     # of electrons  =    216.984792740
     EX              =   -212.804944243
     EC              =     -7.730355623
     EX+EC           =   -220.535299866
Transforming the Hamiltonian                       ... done (   0.0 sec)
Diagonalizing the Hamiltonian                      ... done (   0.1 sec)
Back transforming the eigenvectors                 ... done (   0.0 sec)
Now organizing SCF variables                       ... done
                      ------------------
                      INITIAL GUESS DONE (  42.0 sec)
                      ------------------

--------------------
CPCM SOLVATION MODEL
--------------------
CPCM parameters:
  Epsilon                                         ...      80.4000
  Refrac                                          ...       1.3300
  Rsolv                                           ...       1.3000
  Surface type                                    ...    GEPOL SES
  Epsilon function type                           ...         CPCM
Radii:
 Radius for C  used is    3.7795 Bohr (=   2.0000 Ang.)
 Radius for N  used is    3.4582 Bohr (=   1.8300 Ang.)
 Radius for O  used is    3.2503 Bohr (=   1.7200 Ang.)
 Radius for Cu used is    4.2009 Bohr (=   2.2230 Ang.)
 Radius for H  used is    2.4566 Bohr (=   1.3000 Ang.)
Calculating surface                               ...        done! (  0.5s)
GEPOL surface points                              ...         2060
GEPOL Volume                                      ...    3088.6543
GEPOL Surface-area                                ...    1350.1125
Calculating surface distance matrix               ...        done! (  0.2s)
Performing Cholesky decomposition & store         ...        done! (  0.4s)
Overall time for CPCM initialization              ...                 1.1s
--------------
SCF ITERATIONS
--------------
ITER       Energy         Delta-E        Max-DP      RMS-DP      [F,P]     Damp
               ***  Starting incremental Fock matrix formation  ***
  0  -2715.2630446983   0.000000000000 0.05432630  0.00067769  0.2112347 0.7000
  1  -2715.4625986787  -0.199553980438 0.03541703  0.00046907  0.0866541 0.7000
                               ***Turning on DIIS***
  2  -2715.5447718138  -0.082173135072 0.04344577  0.00082587  0.0410053 0.0000
  3  -2715.6756023754  -0.130830561581 0.03390242  0.00031616  0.0429732 0.0000
  4  -2715.7013703710  -0.025767995667 0.00972716  0.00009548  0.0368491 0.0000
  5  -2715.7034992929  -0.002128921882 0.00757402  0.00004006  0.0175315 0.0000
  6  -2715.7039564404  -0.000457147540 0.00276632  0.00001914  0.0028120 0.0000
  7  -2715.7040133761  -0.000056935625 0.00222426  0.00000810  0.0016391 0.0000
  8  -2715.7040380366  -0.000024660576 0.00245130  0.00001236  0.0005535 0.0000
  9  -2715.7040559577  -0.000017921092 0.00122534  0.00000531  0.0006632 0.0000
 10  -2715.7040590904  -0.000003132704 0.00047442  0.00000231  0.0001259 0.0000
 11  -2715.7040597683  -0.000000677828 0.00010428  0.00000076  0.0000785 0.0000
 12  -2715.7040598783  -0.000000110062 0.00018652  0.00000081  0.0001209 0.0000
 13  -2715.7040599780  -0.000000099695 0.00004256  0.00000033  0.0000226 0.0000
 14  -2715.7040600104  -0.000000032347 0.00002609  0.00000022  0.0000061 0.0000
 15  -2715.7040600187  -0.000000008290 0.00000709  0.00000007  0.0000115 0.0000
 16  -2715.7040600244  -0.000000005723 0.00001916  0.00000020  0.0000031 0.0000
 17  -2715.7040600241   0.000000000260 0.00000501  0.00000005  0.0000051 0.0000
 18  -2715.7040600274  -0.000000003239 0.00001005  0.00000011  0.0000019 0.0000
 19  -2715.7040600272   0.000000000132 0.00000417  0.00000005  0.0000018 0.0000
               *** Restarting incremental Fock matrix formation ***
                                   *** Resetting DIIS ***
 20  -2715.7040600203   0.000000006915 0.00000523  0.00000010  0.0000014 0.0000
 21  -2715.7040600305  -0.000000010141 0.00000133  0.00000002  0.0000031 0.0000
 22  -2715.7040600512  -0.000000020700 0.00000244  0.00000003  0.0000011 0.0000
                            ***DIIS convergence achieved***

               *****************************************************
               *                     SUCCESS                       *
               *           SCF CONVERGED AFTER  23 CYCLES          *
               *****************************************************

Setting up the final grid:

General Integration Accuracy     IntAcc      ...  5.010
Radial Grid Type                 RadialGrid  ... Gauss-Chebyshev
Angular Grid (max. acc.)         AngularGrid ... Lebedev-434
Angular grid pruning method      GridPruning ... 3 (G Style)
Weight generation scheme         WeightScheme... Becke
Basis function cutoff            BFCut       ...    1.0000e-11
Integration weight cutoff        WCut        ...    1.0000e-14
Grids for H and He will be reduced by one unit

# of grid points (after initial pruning)     ... 481438 (   1.5 sec)
# of grid points (after weights+screening)   ... 403856 (  11.4 sec)
nearest neighbour list constructed           ...    0.0 sec
Grid point re-assignment to atoms done       ...    0.1 sec
Grid point division into batches done        ...    4.3 sec
Reduced shell lists constructed in   19.6 sec

Total number of grid points                  ...   403856
Total number of batches                      ...     6339
Average number of points per batch           ...       63
Average number of grid points per atom       ...     7343
Average number of shells per batch           ...   107.98 (43.02%)
Average number of basis functions per batch  ...   208.83 (39.03%)
Average number of large shells per batch     ...    68.35 (63.30%)
Average number of large basis fcns per batch ...   131.68 (63.06%)
Maximum spatial batch extension              ...  23.28, 21.88, 21.34 au
Average spatial batch extension              ...   1.71,  1.71,  1.71 au

Final grid set up in   32.6 sec
Final integration                            ... done (  44.2 sec)
Change in XC energy                          ...     0.000393126
Integrated number of electrons               ...   215.000396701
Previous integrated no of electrons          ...   214.999149696

----------------
TOTAL SCF ENERGY
----------------

Total Energy       :        -2715.70366689 Eh          -73898.05368 eV

Components:
Nuclear Repulsion  :         3181.22171529 Eh           86565.44378 eV
Electronic Energy  :        -5896.92538218 Eh         -160463.49746 eV
One Electron Energy:       -10017.24533002 Eh         -272583.10329 eV
Two Electron Energy:         4120.31994784 Eh          112119.60583 eV
CPCM Dielectric    :           -0.29147884 Eh              -7.93154 eV

Virial components:
Potential Energy   :        -5416.69902976 Eh         -147395.87406 eV
Kinetic Energy     :         2700.99536286 Eh           73497.82038 eV
Virial Ratio       :            2.00544551


DFT components:
N(Alpha)           :      108.000197475159 electrons
N(Beta)            :      107.000199226222 electrons
N(Total)           :      215.000396701380 electrons
E(X)               :     -161.242796111166 Eh       
E(C)               :       -7.655563862457 Eh       
E(XC)              :     -168.898359973623 Eh       
DFET-embed. en.    :        0.000000000000 Eh       
CPCM Solvation Model Properties:
Surface-charge          :           -2.02960655
Charge-correction       :            0.00606121 Eh               0.16493 eV
Free-energy (cav+disp)  :            0.00618036 Eh               0.16818 eV
Corrected G(solv)       :        -2715.69142532 Eh          -73897.72057 eV

---------------
SCF CONVERGENCE
---------------

  Last Energy change         ...    3.3451e-08  Tolerance :   1.0000e-08
  Last MAX-Density change    ...    4.1350e-06  Tolerance :   1.0000e-07
  Last RMS-Density change    ...    4.6857e-08  Tolerance :   5.0000e-09
  Last DIIS Error            ...    2.8697e-07  Tolerance :   5.0000e-07

             **** THE GBW FILE WAS UPDATED (CuL.gbw) ****
             **** DENSITY FILE WAS UPDATED (CuL.scfp) ****
             **** ENERGY FILE WAS UPDATED (CuL.en.tmp) ****
----------------------
UHF SPIN CONTAMINATION
----------------------

Warning: in a DFT calculation there is little theoretical justification to 
         calculate <S**2> as in Hartree-Fock theory. We will do it anyways
         but you should keep in mind that the values have only limited relevance

Expectation value of <S**2>     :     0.755646
Ideal value S*(S+1) for S=0.5   :     0.750000
Deviation                       :     0.005646

             **** THE GBW FILE WAS UPDATED (CuL.gbw) ****
             **** DENSITY FILE WAS UPDATED (CuL.scfp) ****
----------------
ORBITAL ENERGIES
----------------
                 SPIN UP ORBITALS
  NO   OCC          E(Eh)            E(eV) 
   0   1.0000    -323.496193     -8802.7789 
   1   1.0000     -39.103621     -1064.0636 
   2   1.0000     -34.287963      -933.0229 
   3   1.0000     -34.287493      -933.0101 
   4   1.0000     -34.273319      -932.6244 
   5   1.0000     -19.242150      -523.6055 
   6   1.0000     -14.529273      -395.3616 
   7   1.0000     -14.528342      -395.3363 
   8   1.0000     -10.354106      -281.7496 
   9   1.0000     -10.314599      -280.6745 
  10   1.0000     -10.314250      -280.6650 
  11   1.0000     -10.313277      -280.6385 
  12   1.0000     -10.312911      -280.6286 
  13   1.0000     -10.312563      -280.6191 
  14   1.0000     -10.312109      -280.6067 
  15   1.0000     -10.296783      -280.1897 
  16   1.0000     -10.296716      -280.1879 
  17   1.0000     -10.272189      -279.5205 
  18   1.0000     -10.271867      -279.5117 
  19   1.0000     -10.261682      -279.2346 
  20   1.0000     -10.261106      -279.2189 
  21   1.0000     -10.258500      -279.1480 
  22   1.0000     -10.258101      -279.1371 
  23   1.0000     -10.255160      -279.0571 
  24   1.0000     -10.254772      -279.0465 
  25   1.0000     -10.253680      -279.0168 
  26   1.0000     -10.253320      -279.0070 
  27   1.0000     -10.252556      -278.9862 
  28   1.0000     -10.252271      -278.9785 
  29   1.0000     -10.245773      -278.8017 
  30   1.0000     -10.245705      -278.7998 
  31   1.0000      -4.505230      -122.5935 
  32   1.0000      -2.994768       -81.4918 
  33   1.0000      -2.993913       -81.4685 
  34   1.0000      -2.964547       -80.6694 
  35   1.0000      -1.103876       -30.0380 
  36   1.0000      -1.060952       -28.8700 
  37   1.0000      -1.042053       -28.3557 
  38   1.0000      -0.906439       -24.6655 
  39   1.0000      -0.896737       -24.4015 
  40   1.0000      -0.884986       -24.0817 
  41   1.0000      -0.882521       -24.0146 
  42   1.0000      -0.816962       -22.2307 
  43   1.0000      -0.808761       -22.0075 
  44   1.0000      -0.791602       -21.5406 
  45   1.0000      -0.780790       -21.2464 
  46   1.0000      -0.772418       -21.0186 
  47   1.0000      -0.759627       -20.6705 
  48   1.0000      -0.751391       -20.4464 
  49   1.0000      -0.747398       -20.3377 
  50   1.0000      -0.714053       -19.4304 
  51   1.0000      -0.677511       -18.4360 
  52   1.0000      -0.661769       -18.0077 
  53   1.0000      -0.648922       -17.6581 
  54   1.0000      -0.640819       -17.4376 
  55   1.0000      -0.630132       -17.1468 
  56   1.0000      -0.628320       -17.0975 
  57   1.0000      -0.620951       -16.8969 
  58   1.0000      -0.611086       -16.6285 
  59   1.0000      -0.570187       -15.5156 
  60   1.0000      -0.564842       -15.3701 
  61   1.0000      -0.561813       -15.2877 
  62   1.0000      -0.555855       -15.1256 
  63   1.0000      -0.547693       -14.9035 
  64   1.0000      -0.536992       -14.6123 
  65   1.0000      -0.530392       -14.4327 
  66   1.0000      -0.519110       -14.1257 
  67   1.0000      -0.512492       -13.9456 
  68   1.0000      -0.498475       -13.5642 
  69   1.0000      -0.497841       -13.5469 
  70   1.0000      -0.497611       -13.5407 
  71   1.0000      -0.494940       -13.4680 
  72   1.0000      -0.480647       -13.0791 
  73   1.0000      -0.464768       -12.6470 
  74   1.0000      -0.458784       -12.4842 
  75   1.0000      -0.455865       -12.4047 
  76   1.0000      -0.451561       -12.2876 
  77   1.0000      -0.451108       -12.2753 
  78   1.0000      -0.446730       -12.1561 
  79   1.0000      -0.445266       -12.1163 
  80   1.0000      -0.445197       -12.1144 
  81   1.0000      -0.441129       -12.0037 
  82   1.0000      -0.437673       -11.9097 
  83   1.0000      -0.434841       -11.8326 
  84   1.0000      -0.433901       -11.8071 
  85   1.0000      -0.431341       -11.7374 
  86   1.0000      -0.429033       -11.6746 
  87   1.0000      -0.428726       -11.6662 
  88   1.0000      -0.420876       -11.4526 
  89   1.0000      -0.418470       -11.3871 
  90   1.0000      -0.404257       -11.0004 
  91   1.0000      -0.399721       -10.8770 
  92   1.0000      -0.396657       -10.7936 
  93   1.0000      -0.396200       -10.7812 
  94   1.0000      -0.392458       -10.6793 
  95   1.0000      -0.389802       -10.6071 
  96   1.0000      -0.385320       -10.4851 
  97   1.0000      -0.382850       -10.4179 
  98   1.0000      -0.377968       -10.2850 
  99   1.0000      -0.367720       -10.0062 
 100   1.0000      -0.367316        -9.9952 
 101   1.0000      -0.356823        -9.7096 
 102   1.0000      -0.316330        -8.6078 
 103   1.0000      -0.292160        -7.9501 
 104   1.0000      -0.286931        -7.8078 
 105   1.0000      -0.286241        -7.7890 
 106   1.0000      -0.278841        -7.5877 
 107   1.0000      -0.278551        -7.5798 
 108   0.0000      -0.106858        -2.9078 
 109   0.0000      -0.051571        -1.4033 
 110   0.0000      -0.033966        -0.9243 
 111   0.0000      -0.032425        -0.8823 
 112   0.0000      -0.025176        -0.6851 
 113   0.0000      -0.023417        -0.6372 
 114   0.0000       0.012705         0.3457 
 115   0.0000       0.041944         1.1413 
 116   0.0000       0.064101         1.7443 
 117   0.0000       0.065103         1.7715 
 118   0.0000       0.067577         1.8389 
 119   0.0000       0.082286         2.2391 
 120   0.0000       0.083430         2.2702 
 121   0.0000       0.084415         2.2971 
 122   0.0000       0.085327         2.3219 
 123   0.0000       0.091287         2.4840 
 124   0.0000       0.091938         2.5018 
 125   0.0000       0.093588         2.5467 
 126   0.0000       0.109232         2.9724 
 127   0.0000       0.114565         3.1175 
 128   0.0000       0.116274         3.1640 
 129   0.0000       0.120873         3.2891 
 130   0.0000       0.122671         3.3381 
 131   0.0000       0.124919         3.3992 
 132   0.0000       0.128081         3.4853 
 133   0.0000       0.128388         3.4936 
 134   0.0000       0.139822         3.8048 
 135   0.0000       0.140014         3.8100 
 136   0.0000       0.141825         3.8592 
 137   0.0000       0.145971         3.9721 
 138   0.0000       0.146230         3.9791 
 139   0.0000       0.153518         4.1774 
 140   0.0000       0.155374         4.2279 
 141   0.0000       0.157678         4.2906 
 142   0.0000       0.159619         4.3434 
 143   0.0000       0.166378         4.5274 
 144   0.0000       0.176455         4.8016 
 145   0.0000       0.182275         4.9600 
 146   0.0000       0.183352         4.9893 
 147   0.0000       0.185630         5.0512 
 148   0.0000       0.186396         5.0721 
 149   0.0000       0.188628         5.1328 
 150   0.0000       0.193771         5.2728 
 151   0.0000       0.205166         5.5829 
 152   0.0000       0.207623         5.6497 
 153   0.0000       0.209308         5.6956 
 154   0.0000       0.214879         5.8472 
 155   0.0000       0.226765         6.1706 
 156   0.0000       0.232279         6.3206 
 157   0.0000       0.235992         6.4217 
 158   0.0000       0.242706         6.6044 
 159   0.0000       0.246521         6.7082 
 160   0.0000       0.252358         6.8670 
 161   0.0000       0.260118         7.0782 
 162   0.0000       0.268050         7.2940 
 163   0.0000       0.290470         7.9041 
 164   0.0000       0.290711         7.9106 
 165   0.0000       0.295947         8.0531 
 166   0.0000       0.297632         8.0990 
 167   0.0000       0.300648         8.1811 
 168   0.0000       0.306094         8.3292 
 169   0.0000       0.320877         8.7315 
 170   0.0000       0.321489         8.7482 
[...]
      dxz     :     0.001059
      dyz     :     0.000124
      dx2y2   :     0.001688
      dxy     :     0.000530
 13 C s       :    -0.000599  s :    -0.000599
      pz      :     0.000858  p :    -0.001797
      px      :    -0.002018
      py      :    -0.000637
      dz2     :     0.000252  d :     0.004862
      dxz     :     0.003550
      dyz     :     0.000458
      dx2y2   :     0.000365
      dxy     :     0.000237
 14 C s       :     0.002592  s :     0.002592
      pz      :     0.001906  p :     0.017667
      px      :     0.014758
      py      :     0.001003
      dz2     :     0.000024  d :    -0.000065
      dxz     :    -0.000057
      dyz     :    -0.000019
      dx2y2   :     0.000048
      dxy     :    -0.000061
 15 C s       :    -0.000007  s :    -0.000007
      pz      :    -0.000945  p :    -0.000535
      px      :     0.000307
      py      :     0.000103
      dz2     :     0.000010  d :     0.000467
      dxz     :     0.000012
      dyz     :     0.000027
      dx2y2   :     0.000175
      dxy     :     0.000242
 16 C s       :     0.000129  s :     0.000129
      pz      :     0.000645  p :     0.001467
      px      :     0.000775
      py      :     0.000046
      dz2     :     0.000004  d :    -0.000011
      dxz     :    -0.000026
      dyz     :    -0.000003
      dx2y2   :     0.000016
      dxy     :    -0.000001
 17 C s       :    -0.000034  s :    -0.000034
      pz      :    -0.000421  p :    -0.000518
      px      :    -0.000039
      py      :    -0.000058
      dz2     :     0.000002  d :     0.000052
      dxz     :     0.000005
      dyz     :     0.000013
      dx2y2   :     0.000026
      dxy     :     0.000006
 18 C s       :     0.000123  s :     0.000123
      pz      :     0.000634  p :     0.001436
      px      :     0.000770
      py      :     0.000032
      dz2     :    -0.000000  d :    -0.000010
      dxz     :    -0.000027
      dyz     :    -0.000005
      dx2y2   :    -0.000011
      dxy     :     0.000033
 19 C s       :    -0.000018  s :    -0.000018
      pz      :    -0.001038  p :    -0.000558
      px      :     0.000566
      py      :    -0.000086
      dz2     :     0.000011  d :     0.000458
      dxz     :     0.000032
      dyz     :     0.000015
      dx2y2   :     0.000384
      dxy     :     0.000017
 20 C s       :     0.002553  s :     0.002553
      pz      :     0.011840  p :     0.017377
      px      :     0.004495
      py      :     0.001042
      dz2     :     0.000099  d :    -0.000061
      dxz     :    -0.000053
      dyz     :    -0.000042
      dx2y2   :    -0.000033
      dxy     :    -0.000032
 21 C s       :     0.000004  s :     0.000004
      pz      :     0.000721  p :    -0.000463
      px      :    -0.001070
      py      :    -0.000114
      dz2     :     0.000147  d :     0.000464
      dxz     :     0.000100
      dyz     :     0.000016
      dx2y2   :     0.000183
      dxy     :     0.000018
 22 C s       :     0.000130  s :     0.000130
      pz      :     0.001015  p :     0.001441
      px      :     0.000390
      py      :     0.000035
      dz2     :    -0.000020  d :    -0.000010
      dxz     :    -0.000012
      dyz     :     0.000006
      dx2y2   :    -0.000005
      dxy     :     0.000021
 23 C s       :    -0.000032  s :    -0.000032
      pz      :    -0.000229  p :    -0.000441
      px      :    -0.000161
      py      :    -0.000050
      dz2     :     0.000016  d :     0.000051
      dxz     :     0.000003
      dyz     :     0.000008
      dx2y2   :     0.000012
      dxy     :     0.000011
 24 C s       :     0.000116  s :     0.000116
      pz      :     0.000950  p :     0.001377
      px      :     0.000383
      py      :     0.000044
      dz2     :    -0.000027  d :    -0.000007
      dxz     :    -0.000004
      dyz     :    -0.000005
      dx2y2   :     0.000028
      dxy     :     0.000001
 25 C s       :    -0.000021  s :    -0.000021
      pz      :     0.000413  p :    -0.000525
      px      :    -0.001051
      py      :     0.000113
      dz2     :     0.000074  d :     0.000446
      dxz     :     0.000031
      dyz     :     0.000161
      dx2y2   :     0.000075
      dxy     :     0.000105
 26 Cus       :    -0.026156  s :    -0.026156
      pz      :     0.012963  p :     0.051653
      px      :     0.035997
      py      :     0.002693
      dz2     :     0.218552  d :     0.389620
      dxz     :     0.078678
      dyz     :     0.013236
      dx2y2   :     0.069295
      dxy     :     0.009860
      f0      :     0.000034  f :     0.000051
      f+1     :    -0.000005
      f-1     :     0.000002
      f+2     :     0.000005
      f-2     :     0.000000
      f+3     :     0.000010
      f-3     :     0.000005
 27 H s       :     0.017147  s :     0.017147
      pz      :    -0.000390  p :    -0.000510
      px      :    -0.000043
      py      :    -0.000077
 28 H s       :     0.002808  s :     0.002808
      pz      :    -0.000081  p :    -0.000144
      px      :    -0.000029
      py      :    -0.000034
 29 H s       :     0.002802  s :     0.002802
      pz      :    -0.000069  p :    -0.000139
      px      :     0.000009
      py      :    -0.000079
 30 H s       :     0.017316  s :     0.017316
      pz      :    -0.000446  p :    -0.000509
      px      :    -0.000048
      py      :    -0.000016
 31 H s       :     0.017367  s :     0.017367
      pz      :    -0.000057  p :    -0.000512
      px      :    -0.000446
      py      :    -0.000008
 32 H s       :     0.002838  s :     0.002838
      pz      :    -0.000054  p :    -0.000143
      px      :    -0.000008
      py      :    -0.000081
 33 H s       :     0.017424  s :     0.017424
      pz      :    -0.000077  p :    -0.000512
      px      :    -0.000339
      py      :    -0.000096
 34 H s       :     0.002858  s :     0.002858
      pz      :    -0.000062  p :    -0.000141
      px      :    -0.000047
      py      :    -0.000032
 35 H s       :    -0.000020  s :    -0.000020
      pz      :     0.000005  p :    -0.000004
      px      :    -0.000003
      py      :    -0.000006
 36 H s       :    -0.000014  s :    -0.000014
      pz      :     0.000002  p :    -0.000000
      px      :     0.000007
      py      :    -0.000009
 37 H s       :    -0.000020  s :    -0.000020
      pz      :    -0.000007  p :    -0.000004
      px      :     0.000010
      py      :    -0.000007
 38 H s       :    -0.000014  s :    -0.000014
      pz      :     0.000003  p :    -0.000000
      px      :     0.000006
      py      :    -0.000009
 39 H s       :    -0.000021  s :    -0.000021
      pz      :     0.000007  p :    -0.000004
      px      :    -0.000005
      py      :    -0.000006
 40 H s       :    -0.000020  s :    -0.000020
      pz      :    -0.000005  p :    -0.000004
      px      :     0.000007
      py      :    -0.000005
 41 H s       :     0.003675  s :     0.003675
      pz      :    -0.000069  p :    -0.000205
      px      :    -0.000112
      py      :    -0.000024
 42 H s       :     0.003364  s :     0.003364
      pz      :    -0.000083  p :    -0.000197
      px      :    -0.000131
      py      :     0.000017
 43 H s       :     0.003826  s :     0.003826
      pz      :    -0.000103  p :    -0.000204
      px      :    -0.000115
      py      :     0.000014
 44 H s       :     0.003051  s :     0.003051
      pz      :    -0.000092  p :    -0.000187
      px      :    -0.000066
      py      :    -0.000029
 45 H s       :     0.000540  s :     0.000540
      pz      :    -0.000017  p :    -0.000021
      px      :    -0.000000
      py      :    -0.000004
 46 H s       :     0.000201  s :     0.000201
      pz      :     0.000014  p :     0.000034
      px      :     0.000018
      py      :     0.000002
 47 H s       :     0.000090  s :     0.000090
      pz      :    -0.000015  p :    -0.000020
      px      :    -0.000003
      py      :    -0.000002
 48 H s       :     0.000202  s :     0.000202
      pz      :     0.000015  p :     0.000033
      px      :     0.000011
      py      :     0.000007
 49 H s       :     0.000524  s :     0.000524
      pz      :    -0.000025  p :    -0.000021
      px      :     0.000014
      py      :    -0.000010
 50 H s       :     0.000545  s :     0.000545
      pz      :     0.000017  p :    -0.000019
      px      :    -0.000028
      py      :    -0.000007
 51 H s       :     0.000197  s :     0.000197
      pz      :     0.000019  p :     0.000033
      px      :     0.000007
      py      :     0.000007
 52 H s       :     0.000087  s :     0.000087
      pz      :    -0.000002  p :    -0.000019
      px      :    -0.000015
      py      :    -0.000002
 53 H s       :     0.000200  s :     0.000200
      pz      :     0.000022  p :     0.000031
      px      :     0.000008
      py      :     0.000002
 54 H s       :     0.000506  s :     0.000506
      pz      :     0.000010  p :    -0.000020
      px      :    -0.000024
      py      :    -0.000005


                      *****************************
                      * MAYER POPULATION ANALYSIS *
                      *****************************

  NA   - Mulliken gross atomic population
  ZA   - Total nuclear charge
  QA   - Mulliken gross atomic charge
  VA   - Mayer's total valence
  BVA  - Mayer's bonded valence
  FA   - Mayer's free valence

  ATOM       NA         ZA         QA         VA         BVA        FA
  0 C      6.4444     6.0000    -0.4444     3.9570     3.9570     0.0000
  1 C      5.8107     6.0000     0.1893     3.6994     3.6993     0.0001
  2 N      7.5565     7.0000    -0.5565     3.2614     3.2104     0.0509
  3 C      5.8103     6.0000     0.1897     3.7002     3.7001     0.0001
  4 C      6.4463     6.0000    -0.4463     3.9569     3.9569     0.0000
  5 C      5.8091     6.0000     0.1909     3.6985     3.6983     0.0001
  6 N      7.5572     7.0000    -0.5572     3.2629     3.2113     0.0516
  7 C      5.8081     6.0000     0.1919     3.6989     3.6988     0.0001
  8 C      5.7813     6.0000     0.2187     3.9090     3.9090     0.0000
  9 C      5.9470     6.0000     0.0530     3.9500     3.9500     0.0000
 10 C      5.9471     6.0000     0.0529     3.9502     3.9502     0.0000
 11 O      8.2033     8.0000    -0.2033     2.3117     2.3117     0.0000
 12 C      5.8386     6.0000     0.1614     3.7726     3.7724     0.0002
 13 C      5.8372     6.0000     0.1628     3.7726     3.7724     0.0002
 14 C      6.1506     6.0000    -0.1506     3.9345     3.9339     0.0005
 15 C      6.0117     6.0000    -0.0117     3.8691     3.8690     0.0000
 16 C      6.0336     6.0000    -0.0336     3.8562     3.8562     0.0000
 17 C      6.0212     6.0000    -0.0212     3.8212     3.8212     0.0000
 18 C      6.0333     6.0000    -0.0333     3.8557     3.8557     0.0000
 19 C      6.0132     6.0000    -0.0132     3.8681     3.8681     0.0000
 20 C      6.1518     6.0000    -0.1518     3.9337     3.9332     0.0005
 21 C      6.0116     6.0000    -0.0116     3.8698     3.8698     0.0000
 22 C      6.0338     6.0000    -0.0338     3.8569     3.8569     0.0000
 23 C      6.0213     6.0000    -0.0213     3.8211     3.8211     0.0000
 24 C      6.0330     6.0000    -0.0330     3.8552     3.8552     0.0000
 25 C      6.0137     6.0000    -0.0137     3.8675     3.8675     0.0000
 26 Cu    28.1433    29.0000     0.8567     1.7373     1.5331     0.2042
 27 H      0.8750     1.0000     0.1250     0.9966     0.9961     0.0005
 28 H      0.8781     1.0000     0.1219     0.9940     0.9939     0.0000
 29 H      0.8780     1.0000     0.1220     0.9935     0.9934     0.0000
 30 H      0.8764     1.0000     0.1236     0.9985     0.9980     0.0005
 31 H      0.8753     1.0000     0.1247     0.9972     0.9967     0.0005
 32 H      0.8778     1.0000     0.1222     0.9936     0.9936     0.0000
 33 H      0.8754     1.0000     0.1246     0.9979     0.9974     0.0005
 34 H      0.8779     1.0000     0.1221     0.9935     0.9934     0.0000
 35 H      0.9257     1.0000     0.0743     0.9972     0.9972     0.0000
 36 H      0.9253     1.0000     0.0747     0.9886     0.9886     0.0000
 37 H      0.9257     1.0000     0.0743     0.9973     0.9973     0.0000
 38 H      0.9253     1.0000     0.0747     0.9886     0.9886     0.0000
 39 H      0.9257     1.0000     0.0743     0.9971     0.9971     0.0000
 40 H      0.9256     1.0000     0.0744     0.9972     0.9972     0.0000
 41 H      0.8772     1.0000     0.1228     0.9815     0.9815     0.0000
 42 H      0.8769     1.0000     0.1231     0.9817     0.9817     0.0000
 43 H      0.8772     1.0000     0.1228     0.9815     0.9814     0.0000
 44 H      0.8776     1.0000     0.1224     0.9821     0.9821     0.0000
 45 H      0.9476     1.0000     0.0524     0.9895     0.9895     0.0000
 46 H      0.9446     1.0000     0.0554     0.9810     0.9810     0.0000
 47 H      0.9431     1.0000     0.0569     0.9806     0.9806     0.0000
 48 H      0.9446     1.0000     0.0554     0.9810     0.9810     0.0000
 49 H      0.9477     1.0000     0.0523     0.9895     0.9895     0.0000
 50 H      0.9474     1.0000     0.0526     0.9895     0.9895     0.0000
 51 H      0.9446     1.0000     0.0554     0.9810     0.9810     0.0000
 52 H      0.9430     1.0000     0.0570     0.9805     0.9805     0.0000
 53 H      0.9446     1.0000     0.0554     0.9809     0.9809     0.0000
 54 H      0.9478     1.0000     0.0522     0.9896     0.9896     0.0000

  Mayer bond orders larger than 0.100000
B(  0-C ,  1-C ) :   0.9869 B(  0-C ,  5-C ) :   0.9869 B(  0-C ,  8-C ) :   0.8621 
B(  0-C , 10-C ) :   1.0817 B(  1-C ,  2-N ) :   0.8293 B(  1-C , 27-H ) :   0.9096 
B(  1-C , 28-H ) :   0.9385 B(  2-N ,  3-C ) :   0.8298 B(  2-N , 13-C ) :   0.8264 
B(  2-N , 26-Cu) :   0.6165 B(  3-C ,  4-C ) :   0.9863 B(  3-C , 29-H ) :   0.9386 
B(  3-C , 30-H ) :   0.9094 B(  4-C ,  7-C ) :   0.9866 B(  4-C ,  8-C ) :   0.8623 
B(  4-C ,  9-C ) :   1.0814 B(  5-C ,  6-N ) :   0.8288 B(  5-C , 31-H ) :   0.9091 
B(  5-C , 32-H ) :   0.9386 B(  6-N ,  7-C ) :   0.8292 B(  6-N , 12-C ) :   0.8262 
B(  6-N , 26-Cu) :   0.6181 B(  7-C , 33-H ) :   0.9091 B(  7-C , 34-H ) :   0.9387 
B(  8-C , 11-O ) :   2.2315 B(  9-C , 35-H ) :   0.9523 B(  9-C , 36-H ) :   0.9545 
B(  9-C , 37-H ) :   0.9522 B( 10-C , 38-H ) :   0.9545 B( 10-C , 39-H ) :   0.9522 
B( 10-C , 40-H ) :   0.9522 B( 12-C , 14-C ) :   1.0320 B( 12-C , 41-H ) :   0.9281 
B( 12-C , 42-H ) :   0.9280 B( 13-C , 20-C ) :   1.0322 B( 13-C , 43-H ) :   0.9285 
B( 13-C , 44-H ) :   0.9282 B( 14-C , 15-C ) :   1.3787 B( 14-C , 19-C ) :   1.3779 
B( 15-C , 16-C ) :   1.3932 B( 15-C , 45-H ) :   0.9860 B( 16-C , 17-C ) :   1.3827 
B( 16-C , 46-H ) :   0.9869 B( 17-C , 18-C ) :   1.3827 B( 17-C , 47-H ) :   0.9890 
B( 18-C , 19-C ) :   1.3929 B( 18-C , 48-H ) :   0.9869 B( 19-C , 49-H ) :   0.9865 
B( 20-C , 21-C ) :   1.3790 B( 20-C , 25-C ) :   1.3772 B( 21-C , 22-C ) :   1.3936 
B( 21-C , 50-H ) :   0.9855 B( 22-C , 23-C ) :   1.3827 B( 22-C , 51-H ) :   0.9869 
B( 23-C , 24-C ) :   1.3826 B( 23-C , 52-H ) :   0.9890 B( 24-C , 25-C ) :   1.3929 
B( 24-C , 53-H ) :   0.9869 B( 25-C , 54-H ) :   0.9869 

-------
TIMINGS
-------

Total SCF time: 0 days 0 hours 37 min 9 sec 

Total time                  ....    2229.775 sec
Sum of individual times     ....    2226.329 sec  ( 99.8%)

Fock matrix formation       ....    2169.417 sec  ( 97.3%)
  XC integration            ....     209.797 sec  (  9.7% of F)
    Basis function eval.    ....      49.008 sec  ( 23.4% of XC)
    Density eval.           ....     102.655 sec  ( 48.9% of XC)
    XC-Functional eval.     ....       5.748 sec  (  2.7% of XC)
    XC-Potential eval.      ....      45.981 sec  ( 21.9% of XC)
Diagonalization             ....       2.869 sec  (  0.1%)
Density matrix formation    ....       0.366 sec  (  0.0%)
Population analysis         ....       0.253 sec  (  0.0%)
Initial guess               ....       0.450 sec  (  0.0%)
Orbital Transformation      ....       0.000 sec  (  0.0%)
Orbital Orthonormalization  ....       0.371 sec  (  0.0%)
DIIS solution               ....       1.168 sec  (  0.1%)
Grid generation             ....      51.805 sec  (  2.3%)


-------------------------------------------------------------------------------
                          DFT DISPERSION CORRECTION                            
                                                                               
                              DFTD3 V3.1  Rev 1                                
                          USING Becke-Johnson damping                          
-------------------------------------------------------------------------------
The PBE0 functional is recognized
Active option DFTDOPT                   ...         4   

molecular C6(AA) [au] = 32767.119313 


            DFT-D V3
 parameters
 s6 scaling factor         :     1.0000 
 a1 scaling factor         :     0.4145 
 s8 scaling factor         :     1.2177 
 a2 scaling factor         :     4.8593 
 ad hoc parameters k1-k3   :    16.0000     1.3333    -4.0000 

 Edisp/kcal,au: -48.326896710254  -0.077013803859 
 E6   /kcal   : -30.326934874 
 E8   /kcal   : -17.999961836 
 % E8         :  37.246260491 

-------------------------   ----------------
Dispersion correction           -0.077013804
-------------------------   ----------------


-------------------------   --------------------
FINAL SINGLE POINT ENERGY     -2715.818521150854
-------------------------   --------------------

                                *** OPTIMIZATION RUN DONE ***

                            ***************************************
                            *     ORCA property calculations      *
                            ***************************************

                                    ---------------------
                                    Active property flags
                                    ---------------------
   (+) Dipole Moment


------------------------------------------------------------------------------
                       ORCA ELECTRIC PROPERTIES CALCULATION
------------------------------------------------------------------------------

Dipole Moment Calculation                       ... on
Quadrupole Moment Calculation                   ... off
Polarizability Calculation                      ... off
GBWName                                         ... CuL.gbw
Electron density file                           ... CuL.scfp
The origin for moment calculation is the CENTER OF MASS  = (-0.267490, -0.953774  2.278195)

-------------
DIPOLE MOMENT
-------------
                                X             Y             Z
Electronic contribution:     11.73064      -0.55592     -19.46234
Nuclear contribution   :     -9.54467       0.48306      15.83674
                        -----------------------------------------
Total Dipole Moment    :      2.18597      -0.07287      -3.62560
                        -----------------------------------------
Magnitude (a.u.)       :      4.23424
Magnitude (Debye)      :     10.76257



--------------------
Rotational spectrum 
--------------------
 
Rotational constants in cm-1:     0.013712     0.003298     0.003179 
Rotational constants in MHz :   411.074486    98.884151    95.294364 

 Dipole components along the rotational axes: 
x,y,z [a.u.] :     0.018690    -4.231960    -0.137551 
x,y,z [Debye]:     0.047507   -10.756789    -0.349627 

 

Timings for individual modules:

Sum of individual times         ...   103166.278 sec (=1719.438 min)
GTO integral calculation        ...       27.944 sec (=   0.466 min)   0.0 %
SCF iterations                  ...    77178.222 sec (=1286.304 min)  74.8 %
SCF Gradient evaluation         ...    25929.366 sec (= 432.156 min)  25.1 %
Geometry relaxation             ...       30.745 sec (=   0.512 min)   0.0 %
                             ****ORCA TERMINATED NORMALLY****
TOTAL RUN TIME: 1 days 4 hours 39 minutes 56 seconds 250 msec
